! TOUCHSTONE file generated by CST MICROWAVE STUDIO
! Date and time: Tue Oct 21 13:47:29 2025
! Project name: Untitled_0.cst
! Parameters = {E4_4=4.4; E4_3=0.85; E4_2=9.925; E4_1=10.075; E3_4=4.25; E3_3=0.85; E3_2=9.7; E3_1=10.3; E2_4=0.85; E2_3=-0.85; E2_2=11.85; E2_1=8.15; y=0.017; x=0; Tr6=-2; Tr5=2; Tr4=11; Tr3=2; Tr2=15; Tr1=-5; g3=3; g2=2; g1=0.15; E1_4=1; E1_3=-1; E1_2=12; E1_1=8; SP3_2_6=3.5; SP3_2_5=3.5; SP3_2_4=0.5; SP3_2_3=2; SP3_2_2=1; SP3_2_1=9.15; SP3_1_6=14.4; SP3_1_5=13.4; SP3_1_4=12.4; SP3_1_3=11.4; SP3_1_2=10.4; SP3_1_1=9.4; SP10_2=8.15; SP10_1=12; SP10=11; SP9_2=8.15; SP9_1=12; SP9=11; SP8_2=8.15; SP8_1=2.6; SP8=2.6; SP7_2=8.15; SP7_1=2.6; SP7=2.6; SP6_2=8.4; SP6_1=19.4; SP6=12.4; SP5_2=8.4; SP5_1=17.4; SP5=13.4; SP4_2=8.15; SP4_1=8.4; SP4=4.6; SP3_2=8.15; SP3_1=8.4; SP3=4.6; SP2_2=3.5; SP2_1=3; SP2=0.4; SP1_2=3.5; SP1_1=3; SP1=0.4; S7_2=3.5; S7_1=6; S7=3.8; S6_2=3; S6_1=6; S6=3.8; S5_2=3; S5_1=17.4; S5=15.2; S4_2=3; S4_1=24; S4=22.6; S3_2=2; S3_1=18.6; S3=17; S2_2=3; S2_1=16.8; S2=15.2; S1_2=3; S1_1=8.4; S1=7; w_5=1.05; w_4=0.8; w_3=0.6; hs=0.2; p_3=7.6; p1=0.8; p=0.8; T4=0; x5=0.5; x4=0; x3=0; x2=0; x1=0.5; Tap_2=2; Tap_1=1; k3=0.1; k2=1.25; k1=1; T3=2; T2=4; T1=1.145; v5=1; v4=0.8; v3=3.4; v2=4; v1=0.4; Y2=0.15; Y1=0.15; g4=1; cpw=0.5; A2=3; A3=1.5; A1=0.15; b3=6; b2=3; b1=3; im1=3; c1=3; w2=0; w1=1.4; l1=0; v_sep=0.8; v_d=0.36; h4=0.1; h3=0.18; h2=0.15; h1=0.25; h=0.017; L=32; W=10}
! Header version: 2018
! Port assignment regex: !\s*Touchstone port\s*([0-9]+)\s*=\s*(CST MWS port|CST DS port)\s*([0-9]+|Zmin|Zmax)\s*\(\"(.*)\"\)(\s*mode\s*([0-9]+))?.*
! Touchstone port assignment:
! Touchstone port 1 = CST MWS port 1 ("")
! Touchstone port 2 = CST MWS port 2 ("")
# GHz S DB R 50
0                    -72.0592931     -126.848075   -0.00317598568   -0.0144673167   -0.00281921002   -0.0149337435      -67.9689653     -121.400418
0.01                 -37.3548129     -92.4233794   -0.00502997215     -1.09580759   -0.00502997569     -1.09580758      -37.2877447     -92.4130399
0.02                 -31.3911308     -93.1353886    -0.0088187172     -2.17511825   -0.00898596658     -2.17430942      -31.3674078     -93.0675456
0.04                 -25.3909702     -95.0633588    -0.0214155326     -4.32795994    -0.0216201897     -4.32607348      -25.3870026     -94.9834636
0.06                 -21.8738666     -97.1116264    -0.0401514805     -6.47504556    -0.0402770027     -6.47299858      -21.8749951     -97.0406655
0.08                 -19.3805394      -99.192255    -0.0648813584     -8.61751013    -0.0649350753     -8.61576428      -19.3833731     -99.1333099
0.1                  -17.4518402     -101.284762    -0.0956448256     -10.7548939    -0.0956550619     -10.7535774      -17.4551969     -101.237683
0.12                 -15.8828941     -103.380339     -0.132490776     -12.8857667     -0.132480621     -12.8848585      -15.8862926     -103.344157
0.14                 -14.5642909     -105.473656     -0.175430893     -15.0082116     -0.175414991     -15.0076402      -14.5675271     -105.447217
0.16                 -13.4306508     -107.560758     -0.224432168     -17.1200962     -0.224418596     -17.1197822      -13.4336437     -107.542927
0.18                  -12.439742     -109.638371     -0.279419438     -19.2192189     -0.279411979     -19.2190915      -12.4424686     -109.628096
0.2                  -11.5626691      -111.70362     -0.340279915     -21.3033923     -0.340279764     -21.3033934      -11.5651339     -111.699951
0.22                 -10.8052512     -113.720763     -0.404414445     -23.3336918     -0.404421338     -23.3337765      -10.8074875     -113.715289
0.24                 -10.1248157     -115.714985     -0.473264344     -25.3399524     -0.473277274     -25.3400869      -10.1268425     -115.708314
0.26                 -9.50959092     -117.684884      -0.54656428     -27.3208854     -0.546581925     -27.3210451      -9.51142942     -117.677408
0.28                 -8.95036019     -119.629236     -0.624039377     -29.2753656      -0.62406036     -29.2755332      -8.95203104      -119.62121
0.3                  -8.43975575     -121.546995     -0.705408686     -31.2024326     -0.705431713     -31.2025964      -8.44127832      -121.53858
0.32                 -7.97178202     -123.437284     -0.790388263     -33.1012876     -0.790412199       -33.10144      -7.97317385     -123.428579
0.34                 -7.54148413      -125.29939     -0.878693903     -34.9712886     -0.878717801     -34.9714254      -7.54276082     -125.290456
0.36                 -7.14471185      -127.13276     -0.970043525     -36.8119437     -0.970066633     -36.8120628      -7.14588707     -127.123627
0.38                 -6.77794775     -128.936983      -1.06415926     -38.6229024      -1.06418101     -38.6230033      -6.77903338     -128.927666
0.4                  -6.43817973      -130.71179      -1.16076919     -40.4039466      -1.16078918       -40.40403      -6.43918608     -130.702291
0.42                 -6.12280494     -132.457037      -1.25960889     -42.1549804      -1.25962686     -42.1550476      -6.12374089      -132.44735
0.44                 -5.82955606     -134.172695      -1.36042257       -43.87602      -1.36043839     -43.8760726      -5.83042925     -134.162811
0.46                 -5.55644407     -135.858842       -1.4629641     -45.5671828      -1.46297773     -45.5672229      -5.55726107     -135.848748
0.48                  -5.3017132      -137.51565      -1.56699771     -47.2286778      -1.56700919     -47.2287073      -5.30247965     -137.505333
0.5                  -5.06380501     -139.143375      -1.67229851     -48.8607946      -1.67230795     -48.8608154      -5.06452579     -139.132821
0.52                 -4.84132946     -140.742347      -1.77865288     -50.4638941      -1.77866043     -50.4639081      -4.84200877     -140.731544
0.54                 -4.63304139     -142.312962       -1.8858586     -52.0383994      -1.88586444      -52.038408      -4.63368286     -142.301895
0.56                  -4.4378211     -143.855669      -1.99372493     -53.5847863      -1.99372924     -53.5847911       -4.4384279     -143.844328
0.58                 -4.25465829     -145.370967       -2.1020725     -55.1035759       -2.1020755     -55.1035779      -4.25523317      -145.35934
0.6                  -4.08263862     -146.859393      -2.21073317     -56.5953266      -2.21073506     -56.5953268      -4.08318399      -146.84747
0.62                  -3.9209323     -148.321516      -2.31954975     -58.0606273      -2.31955073     -58.0606265       -3.9214503     -148.309289
0.64                 -3.76878448     -149.757931      -2.42837566     -59.5000911      -2.42837592     -59.5000899      -3.76927697     -149.745392
0.65                 -3.69607754     -150.466691      -2.48274913      -60.210331       -2.4827491     -60.2103298      -3.69655792     -150.453993
0.66                 -3.62583373     -151.168352      -2.53682157     -60.9134306      -2.53682129     -60.9134295      -3.62630247     -151.155463
0.68                 -3.49142521     -152.553486        -2.644739     -62.3013712      -2.64473835     -62.3013705      -3.49187177     -152.540214
0.7                  -3.36464924     -153.914912      -2.75225798     -63.6655209      -2.75225708     -63.6655206      -3.36507493     -153.901259
0.72                 -3.24497973     -155.253285      -2.85927201      -65.006547      -2.85927101     -65.0065474      -3.24538578     -155.239252
0.74                 -3.13193384     -156.569262       -2.9656831     -66.3251176      -2.96568209     -66.3251186      -3.13232133     -156.554851
0.76                 -3.02506771     -157.863497      -3.07140122     -67.6218977       -3.0714003     -67.6218992      -3.02543763      -157.84871
0.78                  -2.9239728     -159.136642      -3.17634386     -68.8975472      -3.17634308     -68.8975491      -2.92432607      -159.12148
0.8                  -2.82827266      -160.38934      -3.28043552     -70.1527185      -3.28043496     -70.1527207      -2.82861012     -160.373805
0.82                 -2.73761994     -161.622226      -3.38360732     -71.3880548      -3.38360701     -71.3880572      -2.73794236     -161.606321
0.84                 -2.65169386     -162.835924      -3.48579651     -72.6041883      -3.48579648     -72.6041907      -2.65200196     -162.819651
0.86                  -2.5703038     -164.030803      -3.58681332     -73.8014887      -3.58681357     -73.8014908      -2.57059825     -164.014157
0.88                 -2.49306389     -165.207739      -3.68673486     -74.9808455      -3.68673541     -74.9808473      -2.49334532     -165.190724
0.9                  -2.41972014     -166.367321      -3.78551467     -76.1428527      -3.78551551     -76.1428539      -2.41998912      -166.34994
0.92                 -2.35003708     -167.510123      -3.88311084     -77.2880895      -3.88311195     -77.2880901      -2.35029414     -167.492379
0.94                 -2.28379622     -168.636703      -3.97948567     -78.4171201      -3.97948703     -78.4171199      -2.28404186       -168.6186
0.96                 -2.22079464     -169.747604      -4.07460533     -79.5304933      -4.07460691     -79.5304922      -2.22102933     -169.729145
0.98                 -2.16084376     -170.843354      -4.16843959     -80.6287424      -4.16844136     -80.6287404      -2.16106795     -170.824543
1                    -2.10376819     -171.924467       -4.2609615     -81.7123851      -4.26096343     -81.7123821      -2.10398227     -171.905307
1.02                 -2.04940465     -172.991441      -4.35214716     -82.7819236      -4.35214921     -82.7819196      -2.04960903     -172.971934
1.04                 -1.99760108     -174.044756      -4.44197541     -83.8378445      -4.44197754     -83.8378395       -1.9977961     -174.024907
1.06                 -1.94821572      -175.08488      -4.53042765     -84.8806195      -4.53042984     -84.8806136      -1.94840173     -175.064692
1.08                 -1.90111634     -176.112265      -4.61748761     -85.9107049      -4.61748981     -85.9106981      -1.90129367     -176.091741
1.1                  -1.85617954     -177.127349      -4.70314114     -86.9285426      -4.70314332     -86.9285349      -1.85634848     -177.106492
1.12                 -1.81329006     -178.130554      -4.78737603     -87.9345597      -4.78737814     -87.9345514       -1.8134509     -178.109368
1.14                 -1.77234017      -179.12229      -4.87018181     -88.9291697      -4.87018384     -88.9291609      -1.77249318     -179.100777
1.16                 -1.73322915      179.897048      -4.95154965     -89.9127721      -4.95155156     -89.9127628      -1.73337458      179.918884
1.18                 -1.69586276      178.927079      -5.03147215      -90.885753      -5.03147392     -90.8857434      -1.69600085      178.949234
1.2                  -1.66015276      177.967433      -5.10994324     -91.8484859      -5.10994484     -91.8484761      -1.66028375      177.989905
1.22                 -1.62601652      177.017753      -5.18695803     -92.8013316      -5.18695944     -92.8013218      -1.62614061      177.040538
1.23                 -1.60951416      176.546543      -5.22491808     -93.2741561       -5.2249194     -93.2741464      -1.60963488      176.569483
1.24                 -1.59339474      176.077677       -5.2624711     -93.7446574      -5.26247232     -93.7446478      -1.59351215      176.100771
1.26                 -1.56221365      175.146857      -5.33647931     -94.6788142      -5.33648032     -94.6788049      -1.56232457      175.170257
1.28                 -1.53238663      174.224988      -5.40902228     -95.6041134      -5.40902307     -95.6041045      -1.53249125      174.248689
1.3                  -1.50384982      173.311758      -5.48009892     -96.5208696      -5.48009948     -96.5208614      -1.50394831      173.335757
1.32                 -1.47654324      172.406868       -5.5497088     -97.4293874      -5.54970914       -97.42938      -1.47663578      172.431161
1.34                 -1.45041057      171.510029      -5.61785213     -98.3299609      -5.61785225     -98.3299544      -1.45049731      171.534612
1.36                 -1.42539888      170.620959      -5.68452964     -99.2228748      -5.68452955     -99.2228694      -1.42547998      170.645829
1.38                  -1.4014584      169.739389      -5.74974255     -100.108404      -5.74974226       -100.1084      -1.40153401      169.764541
1.4                  -1.37854235      168.865058      -5.81349248     -100.986816        -5.813492     -100.986814      -1.37861261      168.890488
1.42                  -1.3566067      167.997711      -5.87578142     -101.858368      -5.87578076     -101.858367      -1.35667175      168.023416
1.44                 -1.33561006      167.137104      -5.93661168      -102.72331      -5.93661085     -102.723311      -1.33567003      167.163079
1.45                 -1.32545158      166.709254      -5.96648058     -103.153379      -5.96647969      -103.15338      -1.32550907      166.735363
1.46                 -1.31552545      166.282945      -5.99595115      -103.58194      -5.99595018     -103.581942      -1.31558049      166.309186
1.48                 -1.29631553      165.434993      -6.05380278     -104.434503      -6.05380169     -104.434506      -1.29636575      165.461494
1.5                  -1.27793351       164.59308      -6.11020428     -105.281173      -6.11020309     -105.281178      -1.27797905      164.619836
1.52                 -1.26034692       163.75699      -6.16515882     -106.122172      -6.16515756     -106.122179      -1.26038789      163.783997
1.54                 -1.24352514      162.926514      -6.21866968     -106.957713      -6.21866836     -106.957721      -1.24356167      162.953768
1.56                 -1.22743936      162.101452      -6.27074022     -107.788003      -6.27073888     -107.788014      -1.22747157      162.128948
1.58                 -1.21206243      161.281607      -6.32137387     -108.613246      -6.32137251     -108.613258      -1.21209044       161.30934
1.6                  -1.19736881      160.466788      -6.37057406     -109.433636      -6.37057273      -109.43365      -1.19739272      160.494755
1.62                 -1.18333442      159.656812      -6.41834425     -110.249365      -6.41834296      -110.24938      -1.18335436      159.685006
1.64                  -1.1699366      158.851499      -6.46468789     -111.060619      -6.46468667     -111.060636      -1.16995268      158.879917
1.66                 -1.15715404      158.050674      -6.50960838     -111.867578      -6.50960726     -111.867596      -1.15716637       158.07931
1.68                 -1.14496666      157.254169      -6.55310909     -112.670418      -6.55310808     -112.670438      -1.14497535      157.283019
1.7                   -1.1333556      156.461817      -6.59519331     -113.469313      -6.59519243     -113.469334      -1.13336077      156.490876
1.72                 -1.12230312      155.673458      -6.63586426     -114.264428      -6.63586354     -114.264451      -1.12230489      155.702721
1.74                 -1.11179257      154.888937      -6.67512506      -115.05593      -6.67512451     -115.055953      -1.11179104      154.918398
1.76                 -1.10180829      154.108099      -6.71297874     -115.843977      -6.71297838     -115.844001      -1.10180359      154.137754
1.78                 -1.09233564      153.330796      -6.74942821     -116.628726      -6.74942806     -116.628751      -1.09232788       153.36064
1.8                  -1.08336087      152.556882      -6.78447626     -117.410332      -6.78447631     -117.410358      -1.08335017       152.58691
1.82                 -1.07487113      151.786216      -6.81812553     -118.188943      -6.81812581      -118.18897       -1.0748576      151.816421
1.84                 -1.06685441      151.018657      -6.85037854     -118.964709      -6.85037905     -118.964736      -1.06683818      151.049035
1.86                 -1.05929953       150.25407      -6.88123767     -119.737773      -6.88123841       -119.7378       -1.0592807      150.284616
1.88                 -1.05219604      149.492322      -6.91070512     -120.508278       -6.9107061     -120.508305      -1.05217475       149.52303
1.9                  -1.04553428      148.733281      -6.93878297     -121.276364      -6.93878418     -121.276391      -1.04551065      148.764146
1.92                 -1.03930529      147.976819      -6.96547309     -122.042168      -6.96547454     -122.042195      -1.03927944      148.007835
1.94                  -1.0335008      147.222811      -6.99077723     -122.805826      -6.99077891     -122.805852      -1.03347285      147.253972
1.96                 -1.02811319      146.471133      -7.01469694     -123.567472      -7.01469884     -123.567498      -1.02808328      146.502433
1.98                 -1.02313551      145.721662       -7.0372336     -124.327238      -7.03723571     -124.327263      -1.02310376      145.753096
2                     -1.0185614      144.974278      -7.05838842     -125.085253      -7.05839073     -125.085277      -1.01852796       145.00584
2.02                 -1.01438515      144.228864      -7.07816243     -125.841648      -7.07816493     -125.841671      -1.01435014      144.260548
2.04                 -1.01060159      143.485303      -7.09655648     -126.596549      -7.09655915     -126.596571      -1.01056515      143.517102
2.06                 -1.00720614      142.743479      -7.11357123     -127.350084      -7.11357405     -127.350105      -1.00716842      142.775388
2.08                  -1.0041948      142.003278      -7.12920715     -128.102377       -7.1292101     -128.102397      -1.00415594      142.035291
2.1                  -1.00156409      141.264588      -7.14346454     -128.853553       -7.1434676     -128.853572      -1.00152423      141.296698
2.12                -0.999311068      140.527297      -7.15634351     -129.603736      -7.15634665     -129.603753     -0.999270365      140.559497
2.14                -0.997433338      139.791295      -7.16784396     -130.353049      -7.16784717     -130.353065     -0.997391944      139.823579
2.16                -0.995929011       139.05647      -7.17796563     -131.101615      -7.17796887     -131.101629     -0.995887085      139.088832
2.18                -0.994796715      138.322715      -7.18670805     -131.849556      -7.18671131     -131.849568     -0.994754419      138.355147
2.2                 -0.994035587       137.58992      -7.19407058     -132.596993      -7.19407382     -132.597004     -0.993993088      137.622416
2.22                -0.993645269      136.857977      -7.20005236     -133.344048      -7.20005557     -133.344058     -0.993602742       136.89053
2.24                -0.993625909      136.126779      -7.20465239     -134.090844      -7.20465553     -134.090852      -0.99358353      136.159382
2.26                -0.993978155      135.396217      -7.20786942     -134.837501      -7.20787247     -134.837508     -0.993936107      135.428863
2.28                -0.994703157      134.666185      -7.20970206     -135.584142      -7.20970499     -135.584148     -0.994661632      134.698866
2.3                 -0.995802572      133.936574      -7.21014869     -136.330889      -7.21015148     -136.330894     -0.995761766      133.969283
2.32                -0.997278563      133.207277      -7.20920754     -137.077864      -7.20921016     -137.077868      -0.99723868      133.240006
2.34                -0.999133802      132.478186      -7.20687662     -137.825191      -7.20687905     -137.825194     -0.999095054      132.510928
2.36                 -1.00137148      131.749192      -7.20315376     -138.572994      -7.20315598     -138.572995      -1.00133409      131.781939
2.38                 -1.00399531      131.020187      -7.19803661     -139.321396      -7.19803859     -139.321397      -1.00395951      131.052931
2.4                  -1.00700955      130.291062       -7.1915226     -140.070523      -7.19152433     -140.070523      -1.00697556      130.323794
2.42                 -1.01041897      129.561705      -7.18360901     -140.820502      -7.18361047     -140.820502      -1.01038706      129.594419
2.44                 -1.01422892      128.832007      -7.17429291      -141.57146      -7.17429408     -141.571459      -1.01419934      128.864693
2.46                 -1.01844531      128.101854      -7.16357117     -142.323525      -7.16357205     -142.323525      -1.01841832      128.134504
2.48                 -1.02307462      127.371134      -7.15144048     -143.076828      -7.15144105     -143.076828      -1.02305051      127.403739
2.5                  -1.02812393      126.639733      -7.13789734     -143.831501       -7.1378976       -143.8315        -1.028103      126.672284
2.52                 -1.03360756      125.907296      -7.12291201     -144.587912      -7.12291194     -144.587912      -1.03359012       125.93978
2.54                 -1.03952705       125.17394       -7.1065076     -145.345964      -7.10650721     -145.345965      -1.03951341      125.206347
2.56                 -1.04589136      124.439545      -7.08868005     -146.105793      -7.08867934     -146.105795      -1.04588187      124.471866
2.58                 -1.05271016      123.703991      -7.06942512     -146.867538      -7.06942408      -146.86754      -1.05270518      123.736217
2.6                  -1.05999383      122.967155      -7.04873833     -147.631339      -7.04873697     -147.631342       -1.0599937      122.999275
2.62                 -1.06775345      122.228911      -7.02661505     -148.397339      -7.02661338     -148.397343      -1.06775858      122.260916
2.64                  -1.0760009      121.489133      -7.00305042     -149.165683      -7.00304845     -149.165689      -1.07601167      121.521012
2.66                 -1.08474883      120.747689       -6.9780394     -149.936519      -6.97803713     -149.936526      -1.08476566      120.779433
2.68                 -1.09401073      120.004447      -6.95157673     -150.709998      -6.95157418     -150.710006      -1.09403407      120.036045
2.7                  -1.10380098      119.259272      -6.92365696     -151.486272      -6.92365415     -151.486283      -1.10383127      119.290713
2.72                 -1.11413487      118.512024      -6.89427445       -152.2655      -6.89427138     -152.265512      -1.11417259      118.543298
2.74                 -1.12502864      117.762563      -6.86342333      -153.04784      -6.86342003     -153.047854      -1.12507428      117.793658
2.76                 -1.13649955      117.010741      -6.83109754     -153.833457      -6.83109403     -153.833473      -1.13655364      117.041647
2.78                 -1.14856596      116.256409      -6.79729082     -154.622517      -6.79728712     -154.622535      -1.14862902      116.287114
2.8                  -1.16124733      115.499415      -6.76199668     -155.415192      -6.76199282     -155.415212      -1.16131991      115.529907
2.82                 -1.17456432        114.7396      -6.72520846     -156.211658      -6.72520445      -156.21168        -1.174647      114.769868
2.84                 -1.18853887      113.976802      -6.68691926     -157.012095      -6.68691513     -157.012119      -1.18863225      114.006834
2.86                 -1.20319425      113.210854      -6.64712201     -157.816687      -6.64711778     -157.816714      -1.20329896      113.240638
2.88                 -1.21855517      112.441584      -6.60580942     -158.625625      -6.60580511     -158.625654      -1.21867184      112.471107
2.9                  -1.23464784      111.668816        -6.562974     -159.439105      -6.56296964     -159.439135      -1.23477715      111.698064
2.92                 -1.25150011      110.892365      -6.51860809     -160.257326       -6.5186037     -160.257358      -1.25164273      110.921326
2.94                 -1.26914153      110.112042      -6.47270382     -161.080497      -6.47269942     -161.080531      -1.26929818      110.140704
2.96                  -1.2876035      109.327653      -6.42525316     -161.908832      -6.42524877     -161.908868       -1.2877749      109.356001
2.98                 -1.30691937      108.538996      -6.37624791     -162.742551      -6.37624355     -162.742588      -1.30710629      108.567016
3                     -1.3271246      107.745861      -6.32567971     -163.581883       -6.3256754     -163.581921      -1.32732782       107.77354
3.02                 -1.34825691      106.948033      -6.27354008     -164.427063      -6.27353584     -164.427102      -1.34847723      106.975355
3.04                 -1.37035641      106.145287      -6.21982041     -165.278335      -6.21981625     -165.278376      -1.37059464      106.172237
3.06                 -1.39346579       105.33739      -6.16451199     -166.135953      -6.16450792     -166.135995       -1.3937228      105.363953
3.08                 -1.41763055      104.524103      -6.10760604     -167.000179      -6.10760208     -167.000221       -1.4179072      104.550263
3.1                  -1.44289914      103.705175      -6.04909376     -167.871285       -6.0490899     -167.871328      -1.44319633      103.730916
3.12                 -1.46932324      102.880347      -5.98896631     -168.749555      -5.98896258     -168.749598       -1.4696419      102.905653
3.14                   -1.496958      102.049351      -5.92721494     -169.635281      -5.92721133     -169.635324      -1.49729907      102.074203
3.16                 -1.52586229      101.211906      -5.86383094     -170.528771      -5.86382747     -170.528814      -1.52622674      101.236287
3.18                 -1.55609978       100.36764      -5.79880352     -171.430423      -5.79880018     -171.430466      -1.55648862       100.39153
3.2                  -1.58773681      99.5163354      -5.73212698     -172.340488      -5.73212378     -172.340531      -1.58815108      99.5397135
3.22                 -1.62084536      98.6576775      -5.66379325     -173.259313      -5.66379019     -173.259355      -1.62128611      98.6805245
3.24                 -1.65550245      97.7913417      -5.59379465     -174.187257      -5.59379172     -174.187298      -1.65597079      97.8136367
3.26                 -1.69179064      96.9169902      -5.52212394     -175.124697      -5.52212114     -175.124738       -1.6922877      96.9387114
3.28                 -1.72979846       96.034272      -5.44877443     -176.072027      -5.44877177     -176.072066      -1.73032541      96.0553967
3.3                  -1.76962095      95.1428227      -5.37374014     -177.029656       -5.3737376     -177.029695        -1.770179      95.1633271
3.32                 -1.81136018      94.2422641      -5.29701588     -177.998015      -5.29701346     -177.998052      -1.81195059      94.2621231
3.34                 -1.85512589      93.3322034      -5.21859742     -178.977552      -5.21859512     -178.977587      -1.85574998      93.3513909
3.36                 -1.90103616      92.4122333      -5.13848167     -179.968736      -5.13847947     -179.968769      -1.90169529      92.4307216
3.38                 -1.94921817      91.4819315      -5.05666684      179.027942      -5.05666474      179.027911      -1.94991376      91.4996917
3.4                  -1.99980899      90.5408608      -4.97315266       178.01197      -4.97315066       178.01194      -2.00054255      90.5578621
3.42                 -2.05295652      89.5885683      -4.88794063      176.982809      -4.88793871      176.982781      -2.05372964      89.6047783
3.44                 -2.10882048      88.6245863      -4.80103423      175.939899      -4.80103239      175.939873      -2.10963482      88.6399706
3.46                 -2.16757352      87.6484315      -4.71243922      174.882652      -4.71243746      174.882629      -2.16843085      87.6629536
3.48                 -2.22940244       86.659606      -4.62216399      173.810455      -4.62216229      173.810435      -2.23030464      86.6732272
3.5                  -2.29450959      85.6575974      -4.53021982      172.722666      -4.53021818      172.722648      -2.29545866      85.6702763
3.52                 -2.36311432      84.6418798      -4.43662133      171.618615      -4.43661974        171.6186      -2.36411241      84.6535724
3.54                 -2.43545474      83.6119143      -4.34138686      170.497602      -4.34138531       170.49759      -2.43650416      83.6225735
3.56                 -2.51178954      82.5671512      -4.24453892      169.358898      -4.24453741      169.358888      -2.51289278      82.5767267
3.58                 -2.59240014       81.507031      -4.14610471       168.20174      -4.14610322      168.201734      -2.59355988      81.5154688
3.6                  -2.67759297      80.4309873      -4.04611661      167.025338      -4.04611515      167.025334      -2.67881214      80.4382293
3.62                 -2.76770059      79.3383943      -3.94461433      165.828813      -3.94461287      165.828814      -2.76898238      79.3443765
3.64                 -2.86308898      78.2287372      -3.84164127      164.611365       -3.8416398      164.611369      -2.86443685      78.2333922
3.66                 -2.96415682      77.1014492      -3.73724919      163.372105       -3.7372477      163.372112      -2.96557461      77.1047042
3.68                 -3.07134052      75.9559732       -3.6314977      162.110114      -3.63149618      162.110125      -3.07283243      75.9577494