! TOUCHSTONE file generated by CST MICROWAVE STUDIO
! Date and time: Tue Oct 21 13:47:27 2025
! Project name: Untitled_0.cst
! Parameters = {E4_4=4.4; E4_3=0.85; E4_2=9.925; E4_1=10.075; E3_4=4.25; E3_3=0.85; E3_2=9.7; E3_1=10.3; E2_4=0.85; E2_3=-0.85; E2_2=11.85; E2_1=8.15; y=0.017; x=0; Tr6=-2; Tr5=2; Tr4=11; Tr3=2; Tr2=15; Tr1=-5; g3=3; g2=2; g1=0.15; E1_4=1; E1_3=-1; E1_2=12; E1_1=8; SP3_2_6=3.5; SP3_2_5=3.5; SP3_2_4=0.5; SP3_2_3=2; SP3_2_2=1; SP3_2_1=9.15; SP3_1_6=14.4; SP3_1_5=13.4; SP3_1_4=12.4; SP3_1_3=11.4; SP3_1_2=10.4; SP3_1_1=9.4; SP10_2=8.15; SP10_1=12; SP10=11; SP9_2=8.15; SP9_1=12; SP9=11; SP8_2=8.15; SP8_1=2.6; SP8=2.6; SP7_2=8.15; SP7_1=2.6; SP7=2.6; SP6_2=8.4; SP6_1=19.4; SP6=12.4; SP5_2=8.4; SP5_1=17.4; SP5=13.4; SP4_2=8.15; SP4_1=8.4; SP4=4.6; SP3_2=8.15; SP3_1=8.4; SP3=4.6; SP2_2=3.5; SP2_1=3; SP2=0.4; SP1_2=3.5; SP1_1=3; SP1=0.4; S7_2=3.5; S7_1=6; S7=3.8; S6_2=3; S6_1=6; S6=3.8; S5_2=3; S5_1=17.4; S5=15.2; S4_2=3; S4_1=24; S4=22.6; S3_2=2; S3_1=18.6; S3=17; S2_2=3; S2_1=16.8; S2=15.2; S1_2=3; S1_1=8.4; S1=7; w_5=1.05; w_4=0.8; w_3=0.6; hs=0.2; p_3=7.6; p1=0.8; p=0.8; T4=0; x5=0.5; x4=0; x3=0; x2=0; x1=0.5; Tap_2=2; Tap_1=1; k3=0.1; k2=1.25; k1=1; T3=2; T2=4; T1=1.145; v5=1; v4=0.8; v3=3.4; v2=4; v1=0.4; Y2=0.15; Y1=0.15; g4=1; cpw=0.5; A2=3; A3=1.5; A1=0.15; b3=6; b2=3; b1=3; im1=0.6; c1=3; w2=0; w1=1.4; l1=0; v_sep=0.8; v_d=0.36; h4=0.1; h3=0.18; h2=0.15; h1=0.25; h=0.017; L=32; W=10}
! Header version: 2018
! Port assignment regex: !\s*Touchstone port\s*([0-9]+)\s*=\s*(CST MWS port|CST DS port)\s*([0-9]+|Zmin|Zmax)\s*\(\"(.*)\"\)(\s*mode\s*([0-9]+))?.*
! Touchstone port assignment:
! Touchstone port 1 = CST MWS port 1 ("")
! Touchstone port 2 = CST MWS port 2 ("")
# GHz S DB R 50
0                     -82.941417     -89.2497804   -0.00186043533   -0.0122004336   -0.00185764737   -0.0121599037      -84.2133587     -166.182052
0.01                 -51.6049802     -91.5758955    -0.0023901678    -0.590624135   -0.00239016364    -0.590624138      -51.7906437     -91.5974306
0.02                 -45.6589737     -91.9829778   -0.00307071378     -1.16901433   -0.00307450315     -1.16904096      -45.7512822     -91.6717553
0.04                 -39.6105069     -92.9901611   -0.00482466871      -2.3252622   -0.00483592579     -2.32530293      -39.6553946     -92.5888711
0.06                 -36.0221957     -94.0503221   -0.00698160326     -3.48050288   -0.00699689931     -3.48052462      -36.0511421     -93.6797327
0.08                 -33.4483869     -95.1309931    -0.0094134746     -4.63488611   -0.00942871117      -4.6348815      -33.4692818     -94.8152822
0.1                  -31.4326599     -96.2244626     -0.012044478     -5.78888179    -0.0120570427     -5.78885872      -31.4486534     -95.9688283
0.12                 -29.7709949     -97.3273711    -0.0148512958     -6.94300591    -0.0148602975     -6.94297598      -29.7836659     -97.1309877
0.14                 -28.3543084     -98.4378339    -0.0178451855     -8.09767594    -0.0178508415     -8.09764838      -28.3645699     -98.2975602
0.16                 -27.1173779     -99.5546625    -0.0210542637     -9.25317718     -0.021057267     -9.25315741      -27.1258138     -99.4664315
0.18                 -26.0180839     -100.677045    -0.0245121305     -10.4096814    -0.0245132567     -10.4096716      -26.0250967     -100.636476
0.2                  -25.0276456     -101.804382    -0.0282521746     -11.5672779    -0.0282521006     -11.5672783      -25.0335287     -101.807081
0.22                 -24.2014763     -102.951154    -0.0320073303      -12.717453      -0.03200658     -12.7174625      -24.2065304     -102.941961
0.24                 -23.4476683      -104.09595    -0.0359889893     -13.8671841    -0.0359879378     -13.8672012      -23.4520473      -104.08018
0.26                 -22.7546923      -105.23945    -0.0402066954     -15.0164575    -0.0402055953     -15.0164805      -22.7585201      -105.22061
0.28                 -22.1135848     -106.382085    -0.0446676036     -16.1652487    -0.0446666139     -16.1652762       -22.116962     -106.362464
0.3                  -21.5172393     -107.524123    -0.0493769572     -17.3135277    -0.0493761695     -17.3135581      -21.5202482     -107.505183
0.32                 -20.9599268     -108.665728    -0.0543385007     -18.4612611    -0.0543379597     -18.4612934      -20.9626347     -108.648361
0.34                 -20.4369618     -109.806991    -0.0595548114     -19.6084143    -0.0595545305     -19.6084475      -20.4394235     -109.791696
0.36                 -19.9444634     -110.947951    -0.0650275556     -20.7549522     -0.065027528     -20.7549854      -19.9467233     -110.934966
0.38                 -19.4791814     -112.088617    -0.0707576838     -21.9008394    -0.0707578905     -21.9008722      -19.4812754        -112.078
0.4                  -19.0383668     -113.228973    -0.0767455767      -23.046041    -0.0767459921     -23.0460729      -19.0403235     -113.220666
0.42                 -18.6196737     -114.368986    -0.0829911551     -24.1905224    -0.0829917503     -24.1905529      -18.6215157      -114.36286
0.44                 -18.2210845     -115.508615    -0.0894939618     -25.3342491    -0.0894947075     -25.3342782      -18.2228294     -115.504499
0.46                 -17.8408513      -116.64781    -0.0962532228     -26.4771872    -0.0962540907     -26.4772146      -17.8425126     -116.645513
0.48                 -17.4774498     -117.786518     -0.103267893     -27.6193029     -0.103268857     -27.6193286      -17.4790378     -117.785844
0.5                  -17.1295429     -118.924682     -0.110536692      -28.760563     -0.110537728      -28.760587      -17.1310653     -118.925439
0.52                 -16.7959512     -120.062245     -0.118058128     -29.9009343     -0.118059215     -29.9009565      -16.7974137     -120.064253
0.54                 -16.4756291      -121.19915     -0.125830518     -31.0403838     -0.125831637     -31.0404044      -16.4770357     -121.202243
0.56                 -16.1676452     -122.335339     -0.133852003      -32.178879      -0.13385314     -32.1788979      -16.1689989     -122.339367
0.58                 -15.8711666     -123.470757     -0.142120561     -33.3163873     -0.142121703     -33.3164047      -15.8724695     -123.475587
0.6                  -15.5854449     -124.605348      -0.15063401     -34.4528765     -0.150635146     -34.4528923      -15.5866986     -124.610865
0.62                 -15.3098058     -125.739058      -0.15939002     -35.5883143     -0.159391142     -35.5883288      -15.3110112     -125.745163
0.64                 -15.0436388     -126.871834     -0.168386116     -36.7226689     -0.168387216      -36.722682      -15.0447971     -126.878442
0.65                 -14.9139323     -127.437856     -0.172973383       -37.28943     -0.172974471     -37.2894426      -14.9150674     -127.444689
0.66                 -14.7878154      -128.00323     -0.177570378     -37.8554923     -0.177571453     -37.8555043      -14.7889277     -128.010195
0.68                 -14.5418076     -129.133176     -0.186931947     -38.9867368     -0.186932994     -38.9867477       -14.542875     -129.140375
0.7                  -14.3037209     -130.262018     -0.196514315     -40.1167847     -0.196515331     -40.1167946      -14.3047443     -130.269415
0.72                 -14.0731328     -131.389714     -0.206314215     -41.2456085     -0.206315199     -41.2456175      -14.0741131     -131.397283
0.74                 -13.8496552     -132.516223     -0.216328273     -42.3731809     -0.216329225     -42.3731891      -13.8505937     -132.523945
0.76                 -13.6329311     -133.641505     -0.226553007      -43.499475     -0.226553928     -43.4994825      -13.6338292     -133.649366
0.78                 -13.4226313     -134.765523      -0.23698483     -44.6244642     -0.236985721      -44.624471      -13.4234903     -134.773514
0.8                  -13.2184512     -135.888239      -0.24762005     -45.7481222     -0.247620912     -45.7481284      -13.2192728     -135.896356
0.82                 -13.0201089     -137.009617     -0.258454871     -46.8704231     -0.258455707     -46.8704287      -13.0208947      -137.01786
0.84                 -12.8273427     -138.129625     -0.269485397     -47.9913413     -0.269486209     -47.9913465      -12.8280944     -138.137993
0.86                 -12.6404768     -139.248049     -0.280674723     -49.1106648     -0.280675512     -49.1106695      -12.6411965      -139.25652
0.88                  -12.458709     -140.365038     -0.292049147     -50.2285565     -0.292049917     -50.2285609      -12.4593986     -140.373616
0.9                  -12.2818275     -141.480561     -0.303604464     -51.3449931     -0.303605215     -51.3449971      -12.2824888     -141.489254
0.92                 -12.1096344      -142.59459     -0.315336376     -52.4599515     -0.315337111     -52.4599552      -12.1102694     -142.603404
0.94                 -11.9419444     -143.707097     -0.327240496     -53.5734093     -0.327241217     -53.5734127      -11.9425549     -143.716038
0.96                 -11.7785838     -144.818055     -0.339312352     -54.6853443     -0.339313061     -54.6853475      -11.7791718     -144.827129
0.98                 -11.6193896     -145.927439     -0.351547386     -55.7957352     -0.351548084     -55.7957381      -11.6199567     -145.936651
1                    -11.4642084     -147.035224     -0.363940955     -56.9045608     -0.363941643     -56.9045635      -11.4647565     -147.044579
1.02                 -11.3128961     -148.141386     -0.376488336     -58.0118008     -0.376489015     -58.0118033      -11.3134267     -148.150887
1.04                 -11.1653166     -149.245902     -0.389184727     -59.1174353     -0.389185398     -59.1174377      -11.1658312     -149.255553
1.06                 -11.0213415     -150.348751     -0.402025247     -60.2214451      -0.40202591     -60.2214472      -11.0218416     -150.358552
1.08                 -10.8808498      -151.44991     -0.415004943     -61.3238115     -0.415005598     -61.3238134      -10.8813366     -151.459863
1.1                  -10.7437268      -152.54936     -0.428118786     -62.4245163     -0.428119434     -62.4245181      -10.7442015     -152.559464
1.12                 -10.6098639     -153.647081     -0.441361679     -63.5235423     -0.441362319     -63.5235438      -10.6103276     -153.657335
1.14                 -10.4791584     -154.743054     -0.454728456     -64.6208726     -0.454729087     -64.6208739      -10.4796119     -154.753457
1.16                 -10.3515128     -155.837261     -0.468213887      -65.716491     -0.468214509     -65.7164922      -10.3519569      -155.84781
1.18                 -10.2268344     -156.929685     -0.481812678     -66.8103823     -0.481813289     -66.8103833      -10.2272697     -156.940376
1.2                  -10.1050353     -158.020309     -0.495519476     -67.9025316     -0.495520075     -67.9025324      -10.1054624     -158.031138
1.22                 -9.98603177     -159.109117      -0.50932887     -68.9929249     -0.509329456     -68.9929255      -9.98645114      -159.12008
1.23                 -9.92755333     -159.652836     -0.516270334     -69.5374589     -0.516270913     -69.5374593      -9.92796892     -159.663863
1.24                 -9.86987543      -160.19606     -0.523220221     -70.0815129     -0.523220792     -70.0815132      -9.87028732     -160.207148
1.26                 -9.75648666     -161.281127     -0.537187106     -71.1682872      -0.53718766     -71.1682873      -9.75689128     -161.292333
1.28                 -9.64566066      -162.36434     -0.551238856     -72.2532739     -0.551239391     -72.2532738      -9.64605811     -162.375659
1.3                  -9.53732839     -163.445687     -0.565369891     -73.3364622     -0.565370405     -73.3364618      -9.53771868     -163.457113
1.32                 -9.43142395     -164.525157      -0.57957459      -74.417842     -0.579575081     -74.4178414      -9.43180701     -164.536684
1.34                 -9.32788439     -165.602737     -0.593847294     -75.4974041     -0.593847761     -75.4974033      -9.32826006     -165.614359
1.36                 -9.22664951     -166.678416      -0.60818231     -76.5751401     -0.608182749      -76.575139      -9.22701759     -166.690127
1.38                 -9.12766176     -167.752186     -0.622573911     -77.6510421      -0.62257432     -77.6510408      -9.12802198     -167.763978
1.4                  -9.03086603     -168.824035      -0.63701634     -78.7251033     -0.637016717     -78.7251017      -9.03121808     -168.835903
1.42                 -8.93620957     -169.893955     -0.651503814     -79.7973173     -0.651504157     -79.7973155       -8.9365531     -169.905893
1.44                 -8.84364181     -170.961937     -0.666030526     -80.8676789     -0.666030833     -80.8676768      -8.84397644     -170.973939
1.45                 -8.79812597     -171.495199     -0.673306775     -81.4021635     -0.673307064     -81.4021613        -8.798456     -171.507231
1.46                 -8.75321153     -172.027961     -0.680575592     -81.9361694     -0.680575861     -81.9361671      -8.75353687      -172.04002
1.48                 -8.66486907     -173.092025     -0.695132591     -83.0027902      -0.69513282     -83.0027876      -8.66518471     -173.104134
1.5                  -8.57847151     -174.154138     -0.709710557      -84.067554     -0.709710745     -84.0675512      -8.57877704     -174.166292
1.52                 -8.49397601     -175.214292     -0.724303657     -85.1304588       -0.7243038     -85.1304557      -8.49427102     -175.226486
1.54                 -8.41134143     -176.272485     -0.738906044     -86.1915032     -0.738906142     -86.1914999      -8.41162553     -176.284714
1.56                 -8.33052825     -177.328709      -0.75351187     -87.2506869     -0.753511921     -87.2506833      -8.33080106     -177.340969
1.58                 -8.25149848     -178.382963      -0.76811528     -88.3080099     -0.768115283     -88.3080062      -8.25175964     -178.395248
1.6                  -8.17421558     -179.435242      -0.78271042     -89.3634735     -0.782710373     -89.3634695      -8.17446476     -179.447549
1.62                  -8.0986444      179.514456     -0.797291434     -90.4170793     -0.797291338     -90.4170752      -8.09888133      179.502131
1.64                 -8.02475113      178.466134     -0.811852475       -91.46883     -0.811852327     -91.4688257      -8.02497556      178.453795
1.66                 -7.95250323      177.419793     -0.826387697     -92.5187289     -0.826387497     -92.5187244      -7.95271496      177.407443
1.68                 -7.88186936      176.375434     -0.840891266     -93.5667801     -0.840891015     -93.5667755      -7.88206825      176.363077
1.7                  -7.81281933      175.333059     -0.855357358     -94.6129885     -0.855357055     -94.6129837      -7.81300529      175.320696
1.72                 -7.74532409      174.292666     -0.869780162     -95.6573596     -0.869779807     -95.6573547      -7.74549708      174.280301
1.74                 -7.67935562      173.254255     -0.884153882     -96.6998999     -0.884153475     -96.6998949      -7.67951567       173.24189
1.76                 -7.61488693      172.217825     -0.898472741     -97.7406165     -0.898472283     -97.7406114      -7.61503414      172.205462
1.78                 -7.55189201      171.183375     -0.912730979     -98.7795171     -0.912730471      -98.779512      -7.55202652      171.171015
1.8                  -7.49034578      170.150901     -0.926922861     -99.8166105     -0.926922302     -99.8166053      -7.49046782      170.138546
1.82                 -7.43022407      169.120401     -0.941042671     -100.851906     -0.941042065     -100.851901      -7.43033392      169.108053
1.84                 -7.37150356       168.09187     -0.955084724     -101.885413     -0.955084071     -101.885408      -7.37160157      168.079531
1.86                 -7.31416178      167.065306     -0.969043357     -102.917143     -0.969042659     -102.917138      -7.31424837      167.052976
1.88                 -7.25817705      166.040703     -0.982912939     -103.947108     -0.982912198     -103.947102      -7.25825272      166.028382
1.9                  -7.20352849      165.018056      -0.99668787     -104.975318     -0.996687088     -104.975313      -7.20359378      165.005746
1.92                 -7.15019593      163.997359      -1.01036258     -106.001788      -1.01036176     -106.001783      -7.15025145       163.98506
1.94                 -7.09815996      162.978605      -1.02393154     -107.026531      -1.02393068     -107.026526      -7.09820639      162.966317
1.96                 -7.04740184      161.961786      -1.03738924     -108.049561      -1.03738835     -108.049556      -7.04743991      161.949512
1.98                 -6.99790351      160.946896      -1.05073022     -109.070892       -1.0507293     -109.070887      -6.99793403      160.934634
2                    -6.94964759      159.933926      -1.06394907     -110.090541      -1.06394812     -110.090536       -6.9496714      159.921677
2.02                 -6.90261729      158.922866      -1.07704039     -111.108524      -1.07703942     -111.108519       -6.9026353      158.910631
2.04                 -6.85679648      157.913707      -1.08999885     -112.124857      -1.08999785     -112.124852      -6.85680964      157.901486
2.06                  -6.8121696      156.906439      -1.10281913     -113.139558      -1.10281812     -113.139554      -6.81217891      156.894232
2.08                 -6.76872169       155.90105      -1.11549599     -114.152645      -1.11549496     -114.152641      -6.76872818      155.888857
2.1                  -6.72643834      154.897529       -1.1280242     -115.164137      -1.12802316     -115.164133       -6.7264431      154.885352
2.12                  -6.6853057      153.895863      -1.14039861     -116.174053      -1.14039756      -116.17405      -6.68530985      153.883702
2.14                 -6.64531046      152.896041      -1.15261408     -117.182414      -1.15261303     -117.182411      -6.64531514      152.883895
2.16                 -6.60643983      151.898047      -1.16466554     -118.189239       -1.1646645     -118.189237      -6.60644622      151.885919
2.18                 -6.56868154      150.901868      -1.17654797     -119.194551      -1.17654693     -119.194548      -6.56869083      150.889757
2.2                  -6.53202382      149.907488      -1.18825638      -120.19837      -1.18825535     -120.198368      -6.53203723      149.895397
2.22                  -6.4964554      148.914893      -1.19978584      -121.20072      -1.19978483     -121.200718      -6.49647414      148.902822
2.24                 -6.46196548      147.924066      -1.21113148     -122.201623      -1.21113049     -122.201622       -6.4619908      147.912015
2.26                 -6.42854373      146.934989      -1.22228847     -123.201103       -1.2222875     -123.201102      -6.42857688      146.922961
2.28                 -6.39618033      145.947646      -1.23325203     -124.199183      -1.23325108     -124.199183      -6.39622253      145.935641
2.3                  -6.36486586      144.962017      -1.24401743     -125.195889      -1.24401651     -125.195889      -6.36491836      144.950038
2.32                  -6.3345914      143.978084      -1.25458001     -126.191246      -1.25457912     -126.191246      -6.33465541      143.966132
2.34                 -6.30534845      142.995826      -1.26493513     -127.185279      -1.26493428      -127.18528      -6.30542519      142.983904
2.36                 -6.27712896      142.015224      -1.27507824     -128.178015      -1.27507743     -128.178016      -6.27721962      142.003333
2.38                 -6.24992534      141.036256      -1.28500481     -129.169481      -1.28500406     -129.169482      -6.25003108      141.024398
2.4                  -6.22373038      140.058899       -1.2947104     -130.159703      -1.29470969     -130.159705      -6.22385235      140.047078
2.42                 -6.19853736      139.083132      -1.30419059      -131.14871      -1.30418993     -131.148713      -6.19867665       139.07135
2.44                 -6.17433995       138.10893      -1.31344102     -132.136531      -1.31344043     -132.136533      -6.17449762      138.097191
2.46                 -6.15113225       137.13627      -1.32245742     -133.123194      -1.32245688     -133.123197      -6.15130933      137.124575
2.48                 -6.12890878      136.165127      -1.33123552     -134.108728      -1.33123505     -134.108731      -6.12910626       136.15348
2.5                   -6.1076645      135.195474      -1.33977115     -135.093164      -1.33977075     -135.093167      -6.10788329      135.183879
2.52                 -6.08745325      134.227152      -1.34804071     -136.076664      -1.34804038     -136.076668      -6.08769423      134.215608
2.54                 -6.06820979      133.260262      -1.35606019     -137.059131      -1.35605992     -137.059136      -6.06847378      133.248772
2.56                 -6.04993036      132.294776      -1.36382557     -138.040598      -1.36382538     -138.040603       -6.0502181      132.283344
2.58                 -6.03261159      131.330666      -1.37133293     -139.021097      -1.37133282     -139.021102      -6.03292375      131.319296
2.6                  -6.01625054      130.367901      -1.37857838     -140.000658      -1.37857834     -140.000664      -6.01658774      130.356597
2.62                  -6.0008447      129.406452      -1.38555809     -140.979316      -1.38555813     -140.979322      -6.00120747      129.395219
2.64                 -5.98639198      128.446286      -1.39226827     -141.957104      -1.39226839      -141.95711      -5.98678078      128.435129
2.66                 -5.97289073      127.487374      -1.39870521     -142.934055      -1.39870541     -142.934062      -5.97330592      127.476297
2.68                 -5.96033971      126.529681      -1.40486525     -143.910205      -1.40486553     -143.910211       -5.9607816      126.518689
2.7                  -5.94873815      125.573174      -1.41074476     -144.885587      -1.41074513     -144.885593      -5.94920692      125.562272
2.72                  -5.9380857      124.617819      -1.41634021     -145.860237      -1.41634065     -145.860244      -5.93858147      124.607013
2.74                 -5.92838246      123.663581      -1.42164807     -146.834192       -1.4216486     -146.834198      -5.92890525      123.652875
2.76                 -5.91962898      122.710423      -1.42666492     -147.807486      -1.42666553     -147.807494      -5.92017871      122.699824
2.78                 -5.91182629       121.75831      -1.43138736     -148.780159      -1.43138804     -148.780166      -5.91240278      121.747821
2.8                  -5.90497585      120.807202      -1.43581206     -149.752246      -1.43581282     -149.752253      -5.90557883      120.796831
2.82                 -5.89907962      119.857061      -1.43993575     -150.723786      -1.43993658     -150.723794      -5.89970871      119.846814
2.84                 -5.89414005      118.907849       -1.4437552     -151.694818       -1.4437561     -151.694825      -5.89479477      118.897731
2.86                 -5.89016004      117.959524      -1.44726725      -152.66538      -1.44726823     -152.665387      -5.89083981      117.949542
2.88                 -5.88714304      117.012046       -1.4504688     -153.635513      -1.45046985      -153.63552      -5.88784717      117.002205
2.9                  -5.88509298      116.065373      -1.45335681     -154.605255      -1.45335791     -154.605263      -5.88582066      116.055679
2.92                 -5.88401431      115.119461      -1.45592828     -155.574649      -1.45592944     -155.574656      -5.88476464      115.109921
2.94                 -5.88391203      114.174267      -1.45818029     -156.543736       -1.4581815     -156.543743        -5.884684      114.164887
2.96                 -5.88479167      113.229746      -1.46010997     -157.512557      -1.46011123     -157.512564      -5.88558415      113.220532
2.98                 -5.88665933      112.285853      -1.46171451     -158.481155      -1.46171581     -158.481162      -5.88747109      112.276812
3                    -5.88952168      111.342541      -1.46299117     -159.449574       -1.4629925      -159.44958      -5.89035138      111.333678
3.02                 -5.89338596      110.399762      -1.46393726     -160.417856      -1.46393863     -160.417862      -5.89423215      110.391085
3.04                 -5.89826005      109.457469      -1.46455018     -161.386047      -1.46455156     -161.386053      -5.89912117      109.448984
3.06                 -5.90415241      108.515612      -1.46482736     -162.354192      -1.46482876     -162.354197      -5.90502679      108.507325
3.08                 -5.91107217      107.574141      -1.46476632     -163.322336      -1.46476773     -163.322341      -5.91195804      107.566059
3.1                   -5.9190291      106.633004      -1.46436466     -164.290526      -1.46436606     -164.290531      -5.91992457      106.625135
3.12                 -5.92803364      105.692151      -1.46362002      -165.25881       -1.4636214     -165.258813      -5.92893675        105.6845
3.14                 -5.93809694      104.751528      -1.46253013     -166.227234      -1.46253149     -166.227237       -5.9390056      104.744101
3.16                 -5.94923087      103.811081      -1.46109279     -167.195849      -1.46109412     -167.195851      -5.95014289      103.803885
3.18                 -5.96144804      102.870755      -1.45930589     -168.164702      -1.45930719     -168.164704      -5.96236115      102.863798
3.2                  -5.97476182      101.930495       -1.4571674     -169.133845      -1.45716863     -169.133847      -5.97567365      101.923782
3.22                 -5.98918639      100.990245      -1.45467534     -170.103329      -1.45467652      -170.10333      -5.99009446      100.983783
3.24                 -6.00473673      100.049946      -1.45182787     -171.073204      -1.45182896     -171.073205       -6.0056385      100.043741
3.26                 -6.02142869      99.1095402      -1.44862318     -172.043525      -1.44862419     -172.043525      -6.02232153      99.1035996
3.28                 -6.03927899      98.1689686      -1.44505961     -173.014345      -1.44506052     -173.014344      -6.04016018      98.1632984
3.3                  -6.05830527      97.2281705      -1.44113556     -173.985717      -1.44113635     -173.985716      -6.05917202      97.2227774
3.32                 -6.07852612       96.287085      -1.43684955     -174.957698      -1.43685022     -174.957696      -6.07937556      96.2819753
3.34                 -6.09996109      95.3456499       -1.4322002     -175.930344      -1.43220072      -175.93034      -6.10079032      95.3408302
3.36                 -6.12263079      94.4038022      -1.42718623     -176.903711       -1.4271866     -176.903707      -6.12343681       94.399279
3.38                 -6.14655687      93.4614781       -1.4218065     -177.877858      -1.42180671     -177.877854      -6.14733664      93.4572579
3.4                   -6.1717621       92.518613      -1.41605999     -178.852845      -1.41606001      -178.85284      -6.17251253      92.5147022
3.42                 -6.19827037      91.5751411      -1.40994578     -179.828732      -1.40994561     -179.828726      -6.19898835      91.5715463
3.44                 -6.22610681      90.6309962      -1.40346312      179.194421      -1.40346275      179.194428      -6.22678917      90.6277239
3.46                 -6.25529778      89.6861111      -1.39661138      178.216551      -1.39661079      178.216558      -6.25594135      89.6831677
3.48                 -6.28587093      88.7404175       -1.3893901      177.237594      -1.38938928      177.237602      -6.28647251      88.7378097
3.5                   -6.3178553      87.7938469      -1.38179896      176.257486      -1.38179789      176.257495      -6.31841169      87.7915811
3.52                 -6.35128134      86.8463295      -1.37383781      175.276161      -1.37383648      175.276171      -6.35178933      86.8444125
3.54                 -6.38618096      85.8977952      -1.36550668      174.293553      -1.36550509      174.293563      -6.38663738      85.8962335
3.56                 -6.42258767      84.9481728      -1.35680578      173.309593      -1.35680391      173.309604      -6.42298934      84.9469732
3.58                 -6.46053655      83.9973908      -1.34773552      172.324213      -1.34773335      172.324224      -6.46088037      83.9965601
3.6                  -6.50006444      83.0453769      -1.33829651      171.337342      -1.33829404      171.337353      -6.50034731      83.0449218
3.62                 -6.54120449      82.0919912      -1.32849088      170.348846       -1.3284881      170.348857      -6.54142341      82.0919149
3.64                  -6.5840014      81.1372278      -1.31831868      169.358716      -1.31831558      169.358728      -6.58415344      81.1375372
3.66                 -6.62849756      80.1810129      -1.30778119      168.366878      -1.30777777       168.36689      -6.62857986      80.1817152
3.68                 -6.67473742      79.2232724      -1.29687997      167.373256      -1.29687622      167.373268      -6.67474725      79.2243746