! TOUCHSTONE file generated by CST MICROWAVE STUDIO
! Date and time: Tue Oct 21 13:47:28 2025
! Project name: Untitled_0.cst
! Parameters = {E4_4=4.4; E4_3=0.85; E4_2=9.925; E4_1=10.075; E3_4=4.25; E3_3=0.85; E3_2=9.7; E3_1=10.3; E2_4=0.85; E2_3=-0.85; E2_2=11.85; E2_1=8.15; y=0.017; x=0; Tr6=-2; Tr5=2; Tr4=11; Tr3=2; Tr2=15; Tr1=-5; g3=3; g2=2; g1=0.15; E1_4=1; E1_3=-1; E1_2=12; E1_1=8; SP3_2_6=3.5; SP3_2_5=3.5; SP3_2_4=0.5; SP3_2_3=2; SP3_2_2=1; SP3_2_1=9.15; SP3_1_6=14.4; SP3_1_5=13.4; SP3_1_4=12.4; SP3_1_3=11.4; SP3_1_2=10.4; SP3_1_1=9.4; SP10_2=8.15; SP10_1=12; SP10=11; SP9_2=8.15; SP9_1=12; SP9=11; SP8_2=8.15; SP8_1=2.6; SP8=2.6; SP7_2=8.15; SP7_1=2.6; SP7=2.6; SP6_2=8.4; SP6_1=19.4; SP6=12.4; SP5_2=8.4; SP5_1=17.4; SP5=13.4; SP4_2=8.15; SP4_1=8.4; SP4=4.6; SP3_2=8.15; SP3_1=8.4; SP3=4.6; SP2_2=3.5; SP2_1=3; SP2=0.4; SP1_2=3.5; SP1_1=3; SP1=0.4; S7_2=3.5; S7_1=6; S7=3.8; S6_2=3; S6_1=6; S6=3.8; S5_2=3; S5_1=17.4; S5=15.2; S4_2=3; S4_1=24; S4=22.6; S3_2=2; S3_1=18.6; S3=17; S2_2=3; S2_1=16.8; S2=15.2; S1_2=3; S1_1=8.4; S1=7; w_5=1.05; w_4=0.8; w_3=0.6; hs=0.2; p_3=7.6; p1=0.8; p=0.8; T4=0; x5=0.5; x4=0; x3=0; x2=0; x1=0.5; Tap_2=2; Tap_1=1; k3=0.1; k2=1.25; k1=1; T3=2; T2=4; T1=1.145; v5=1; v4=0.8; v3=3.4; v2=4; v1=0.4; Y2=0.15; Y1=0.15; g4=1; cpw=0.5; A2=3; A3=1.5; A1=0.15; b3=6; b2=3; b1=3; im1=2.4; c1=3; w2=0; w1=1.4; l1=0; v_sep=0.8; v_d=0.36; h4=0.1; h3=0.18; h2=0.15; h1=0.25; h=0.017; L=32; W=10}
! Header version: 2018
! Port assignment regex: !\s*Touchstone port\s*([0-9]+)\s*=\s*(CST MWS port|CST DS port)\s*([0-9]+|Zmin|Zmax)\s*\(\"(.*)\"\)(\s*mode\s*([0-9]+))?.*
! Touchstone port assignment:
! Touchstone port 1 = CST MWS port 1 ("")
! Touchstone port 2 = CST MWS port 2 ("")
# GHz S DB R 50
0                     -72.942609     -139.599847   -0.00296623438   -0.0227062263   -0.00298588362   -0.0225774506      -68.5959115     -116.649192
0.01                 -39.2142238     -92.2852951   -0.00426566356    -0.962120483   -0.00426566059    -0.962120493      -39.0765564     -92.2644953
0.02                 -33.2400245     -92.7789037    -0.0066029045     -1.90279172   -0.00658732902     -1.90293823      -33.1748651     -92.7795475
0.04                 -27.2264244     -94.4269611    -0.0144406672     -3.78719219     -0.014409835     -3.78766939      -27.1979504     -94.4341426
0.06                 -23.6962768     -96.2255968    -0.0265869263     -5.67445812     -0.026567637     -5.67526429      -23.6799506     -96.2332366
0.08                 -21.1887414      -98.062812    -0.0431407996     -7.56291388    -0.0431615458     -7.56394177      -21.1783744     -98.0697134
0.1                  -19.2443507     -99.9150946    -0.0641664635     -9.45056658    -0.0642436588     -9.45158271      -19.2374583     -99.9208961
0.12                 -17.6581343     -101.773768    -0.0896500431     -11.3351883      -0.08977105     -11.3359142      -17.6534724     -101.778365
0.14                 -16.3206709     -103.634347     -0.119468929      -13.214715     -0.119592546     -13.2150134      -16.3175285      -103.63774
0.16                 -15.1666135     -105.493818     -0.153431449     -15.0877858     -0.153517004      -15.087768      -15.1645475     -105.496054
0.18                 -14.1537806     -107.349762     -0.191381595     -16.9538299     -0.191417215     -16.9537343      -14.1524973     -107.350914
0.2                   -13.253332     -109.200098     -0.233264036     -18.8125239     -0.233263964     -18.8125244      -13.2526275     -109.200247
0.22                 -12.4745093     -111.011027        -0.277261     -20.6317826     -0.277245964     -20.6319278      -12.4742356      -111.01099
0.24                 -11.7715197     -112.808405     -0.324578802     -22.4373568     -0.324563455     -22.4376161      -11.7715715     -112.808138
0.26                 -11.1326904     -114.591151     -0.375145394     -24.2283333     -0.375136466     -24.2286541      -11.1329884     -114.590639
0.28                 -10.5489106     -116.358323     -0.428857018     -26.0037522      -0.42885592      -26.004089      -10.5493941      -116.35757
0.3                  -10.0129231     -118.109094     -0.485585014     -27.7627098     -0.485590596     -27.7630325      -10.0135451     -118.108116
0.32                 -9.51884504     -119.842735     -0.545184396     -29.5044006     -0.545194675     -29.5046925      -9.51956906     -119.841557
0.34                 -9.06183443     -121.558609      -0.60750045     -31.2281261     -0.607513461       -31.22838      -9.06263195     -121.557264
0.36                 -8.63785233     -123.256163     -0.672373156     -32.9332914     -0.672387284     -32.9335061      -8.63870112     -123.254687
0.38                 -8.24348945     -124.934926     -0.739640057     -34.6193975      -0.73965411     -34.6195752      -8.24437222     -124.933358
0.4                  -7.87583762     -126.594499     -0.809138172      -36.286034     -0.809151341     -36.2861784      -7.87674101     -126.592881
0.42                 -7.53239271     -128.234556     -0.880705327     -37.9328716     -0.880717118     -37.9329872      -7.53330645     -128.232934
0.44                 -7.21098039     -129.854837     -0.954181155     -39.5596559     -0.954191312     -39.5597471      -7.21189658      -129.85326
0.46                 -6.90969852     -131.455145      -1.02940787     -41.1662018      -1.02941631     -41.1662728      -6.91061091     -131.453669
0.48                 -6.62687197     -133.035339      -1.10623089     -42.7523879      -1.10623764     -42.7524425      -6.62777512     -133.034027
0.5                  -6.36101698     -134.595332      -1.18449935     -44.3181519      -1.18450454     -44.3181933      -6.36190508     -134.594258
0.52                 -6.11081295     -136.135084      -1.26406654     -45.8634857      -1.26407033     -45.8635167      -6.11167792     -136.134339
0.54                 -5.87508014     -137.654607      -1.34479024     -47.3884307      -1.34479282     -47.3884537      -5.87590855     -137.654292
0.56                 -5.65276215     -139.153965      -1.42653299     -48.8930742      -1.42653456     -48.8930909      -5.65353034     -139.154181
0.58                 -5.44291083      -140.63331      -1.50916232     -50.3775443      -1.50916308     -50.3775565      -5.44357901     -140.634111
0.6                  -5.24466805     -142.092927      -1.59255086     -51.8420069      -1.59255098     -51.8420157       -5.2451788     -142.094216
0.62                 -5.05723731     -143.533247      -1.67657639     -53.2866611      -1.67657605     -53.2866676      -5.05752969     -143.534657
0.64                  -4.8798563     -144.954692      -1.76112194     -54.7117354      -1.76112129     -54.7117403      -4.87989298     -144.955619
0.65                 -4.79470752     -145.658402      -1.80355461     -55.4170085      -1.80355385     -55.4170129      -4.79460981     -145.658867
0.66                 -4.71221757     -146.356508      -1.84586511     -56.1165589      -1.84586428     -56.1165629      -4.71197654     -146.356437
0.68                 -4.55366271     -147.738723      -1.93067742      -57.501461      -1.93067653     -57.5014645      -4.55305274     -147.737966
0.7                  -4.40322785     -149.102337      -2.01566212     -58.8676984      -2.01566127     -58.8677018      -4.40232227     -149.103918
0.72                 -4.26042162     -150.447574      -2.10072689      -60.215594      -2.10072614     -60.2155976      -4.25989032     -150.450926
0.74                 -4.12478662     -151.774768      -2.18578082     -61.5454754      -2.18578024     -61.5454793      -4.12452131     -151.777318
0.76                 -3.99589374     -153.084289      -2.27073863     -62.8576992      -2.27073826     -62.8577036      -3.99573643      -153.08603
0.78                 -3.87334148     -154.376522      -2.35552072     -64.1526275       -2.3555206     -64.1526325      -3.87323653     -154.377724
0.8                  -3.75675536     -155.651848      -2.44005206     -65.4306275      -2.44005219     -65.4306331      -3.75668095     -155.652702
0.82                 -3.64578671     -156.910646      -2.52426203     -66.6920717      -2.52426243      -66.692078      -3.64573236     -156.911276
0.84                 -3.54011099     -158.153296      -2.60808432     -67.9373361      -2.60808499     -67.9373431      -3.54007082     -158.153781
0.86                 -3.43956489     -159.379886      -2.69134068     -69.1665109      -2.69134161     -69.1665186      -3.43953521      -159.38028
0.88                 -3.34372203     -160.591106      -2.77408453     -70.3802895      -2.77408571      -70.380298      -3.34370041     -160.591445
0.9                  -3.25232019      -161.78733      -2.85626166     -71.5790519      -2.85626307     -71.5790611      -3.25230495     -161.787639
0.92                 -3.16511469     -162.968933      -2.93782146     -72.7631761      -2.93782308      -72.763186      -3.16510464     -162.969226
0.94                 -3.08187704     -164.136282      -3.01871672     -73.9330379      -3.01871851     -73.9330485      -3.08187134     -164.136572
0.96                 -3.00239369     -165.289745      -3.09890345     -75.0890099       -3.0989054     -75.0890212      -3.00239173     -165.290037
0.98                  -2.9264649     -166.429682      -3.17834071     -76.2314605      -3.17834278     -76.2314724      -2.92646625     -166.429982
1                    -2.85390372     -167.556452      -3.25699045     -77.3607535      -3.25699263      -77.360766      -2.85390806     -167.556761
1.02                 -2.78453501     -168.670408      -3.33481735     -78.4772479      -3.33481961     -78.4772609      -2.78454214     -168.670727
1.04                 -2.71819466     -169.771895      -3.41178864     -79.5812967      -3.41179096     -79.5813102      -2.71820441     -169.772224
1.06                 -2.65472871     -170.861257      -3.48787398     -80.6732475      -3.48787632     -80.6732613      -2.65474097     -170.861594
1.08                 -2.59399271     -171.938827      -3.56304527     -81.7534413      -3.56304763     -81.7534554      -2.59400738     -171.939171
1.1                  -2.53585101     -173.004937      -3.63727656     -82.8222128       -3.6372789     -82.8222273      -2.53586803     -173.005285
1.12                 -2.48017616     -174.059907      -3.71054388     -83.8798904      -3.71054619     -83.8799049      -2.48019548     -174.060257
1.14                 -2.42684838     -175.104055      -3.78282512     -84.9267953       -3.7828274     -84.9268098      -2.42686994     -175.104405
1.16                   -2.375755     -176.137691      -3.85409994     -85.9632421      -3.85410217     -85.9632564      -2.37577876     -176.138037
1.18                 -2.32679004     -177.161116      -3.92434961     -86.9895385      -3.92435178     -86.9895524      -2.32681594     -177.161456
1.2                   -2.2798537     -178.174628      -3.99355693     -88.0059853      -3.99355902     -88.0059987      -2.27988169     -178.174958
1.22                 -2.23485204     -179.178516      -4.06170611     -89.0128764      -4.06170813     -89.0128891      -2.23488206     -179.178833
1.23                 -2.21304884     -179.676939      -4.09537933     -89.5128285      -4.09538131     -89.5128408      -2.21307986     -179.677249
1.24                 -2.19172156      179.826937      -4.12874406     -90.0104996      -4.12874601     -90.0105114      -2.19175355      179.826635
1.26                 -2.15037737      178.841442      -4.19465703     -90.9991484       -4.1946589      -90.999159      -2.15041126      178.841157
1.28                 -2.11071534      177.864725      -4.25947145        -91.9791      -4.25947324     -91.9791091      -2.11075107      177.864462
1.3                  -2.07266136      176.896524      -4.32317639     -92.9506211      -4.32317812     -92.9506286      -2.07269885      176.896284
1.32                 -2.03614551      175.936584      -4.38576193     -93.9139722      -4.38576358     -93.9139777      -2.03618468       175.93637
1.34                 -2.00110182      174.984653      -4.44721901     -94.8694071       -4.4472206     -94.8694103      -2.00114259      174.984468
1.36                 -1.96746799      174.040489      -4.50753944     -95.8171736      -4.50754097     -95.8171742      -1.96751028      174.040336
1.38                 -1.93518521      173.103855      -4.56671579     -96.7575131      -4.56671728     -96.7575107      -1.93522894      173.103735
1.4                  -1.90419794      172.174518      -4.62474137      -97.690661      -4.62474281     -97.6906554      -1.90424302      172.174434
1.42                 -1.87445369      171.252254      -4.68161012     -98.6168472      -4.68161153     -98.6168379      -1.87450005      171.252207
1.44                 -1.84590289      170.336843      -4.73731659     -99.5362954      -4.73731798     -99.5362823      -1.84595044      170.336835
1.45                 -1.83206029      169.881639      -4.76473243     -99.9935614      -4.76473381     -99.9935461       -1.8321084      169.881652
1.46                 -1.81851549      169.428028      -4.79182311     -100.449265      -4.79182447     -100.449247      -1.81856415      169.428063
1.48                  -1.7922463      168.525592      -4.84512528     -101.355979      -4.84512663     -101.355957        -1.792296       168.52567
1.5                  -1.76703638      167.629367      -4.89725208     -102.256608      -4.89725342     -102.256581      -1.76708705      167.629491
1.52                 -1.74284621      166.739156      -4.94820008     -103.151356      -4.94820142     -103.151324      -1.74289778      166.739327
1.54                 -1.71963843      165.854765      -4.99796626     -104.040421       -4.9979676     -104.040382      -1.71969084      165.854986
1.56                  -1.6973777      164.976005      -5.04654794     -104.923995      -5.04654929      -104.92395      -1.69743089      164.976277
1.58                 -1.67603063      164.102694      -5.09394275     -105.802267       -5.0939441     -105.802216      -1.67608454      164.103018
1.6                  -1.65556565       163.23465      -5.14014863     -106.675421      -5.14014998     -106.675364      -1.65562025      163.235028
1.62                 -1.63595292        162.3717      -5.18516374     -107.543638       -5.1851651     -107.543574      -1.63600816      162.372134
1.64                 -1.61716424      161.513673      -5.22898651     -108.407094      -5.22898786     -108.407022       -1.6172201      161.514163
1.66                 -1.59917298      160.660401      -5.27161554      -109.26596      -5.27161688      -109.26588      -1.59922942      160.660949
1.68                 -1.58195396      159.811721      -5.31304963     -110.120406      -5.31305095     -110.120318      -1.58201096      159.812329
1.7                  -1.56548342      158.967475      -5.35328774     -110.970595      -5.35328903     -110.970499      -1.56554098      158.968144
1.72                 -1.54973893      158.127507      -5.39232895      -111.81669       -5.3923302     -111.816585      -1.54979703      158.128238
1.74                 -1.53469934      157.291664      -5.43017248     -112.658848      -5.43017367     -112.658735      -1.53475799      157.292459
1.76                 -1.52034469      156.459798      -5.46681764     -113.497225      -5.46681875     -113.497103      -1.52040388      156.460658
1.78                 -1.50665618      155.631764      -5.50226382     -114.331972      -5.50226484     -114.331842      -1.50671594       155.63269
1.8                  -1.49361611      154.807417      -5.53651049     -115.163238       -5.5365114       -115.1631      -1.49367644      154.808412
1.82                 -1.48120782       153.98662      -5.56955718     -115.991172      -5.56955795     -115.991024      -1.48126877      153.987684
1.84                 -1.46941568      153.169234      -5.60140344     -116.815915      -5.60140405     -116.815759      -1.46947726      153.170369
1.86                 -1.45822499      152.355126      -5.63204886     -117.637609      -5.63204929     -117.637445      -1.45828724      152.356333
1.88                 -1.44762199      151.544163      -5.66149304     -118.456395      -5.66149327     -118.456222      -1.44768494      151.545444
1.9                  -1.43759379      150.736216      -5.68973561     -119.272408       -5.6897356     -119.272227       -1.4376575      150.737573
1.92                 -1.42812835      149.931158      -5.71677618     -120.085784       -5.7167759     -120.085595      -1.42819286      149.932593
1.94                 -1.41921446      149.128865      -5.74261432     -120.896656      -5.74261375      -120.89646      -1.41927983      149.130379
1.96                 -1.41084169      148.329212      -5.76724964     -121.705155      -5.76724875     -121.704952      -1.41090796      148.330807
1.98                 -1.40300034      147.532079      -5.79068166     -122.511411      -5.79068042     -122.511201      -1.40306758      147.533758
2                    -1.39568148      146.737347       -5.8129099     -123.315551       -5.8129083     -123.315335      -1.39574975      146.739111
2.02                 -1.38887687      145.944898      -5.83393382     -124.117703      -5.83393183     -124.117482      -1.38894622      145.946749
2.04                 -1.38257895      145.154616      -5.85375284     -124.917992      -5.85375044     -124.917766      -1.38264945      145.156556
2.06                 -1.37678084      144.366387      -5.87236633     -125.716541       -5.8723635     -125.716311      -1.37685255      144.368418
2.08                 -1.37147629      143.580096      -5.88977358     -126.513474      -5.88977031     -126.513241      -1.37154929      143.582222
2.1                   -1.3666597      142.795633      -5.90597383     -127.308913       -5.9059701     -127.308678      -1.36673404      142.797855
2.12                 -1.36232607      142.012886      -5.92096625     -128.102979      -5.92096206     -128.102742      -1.36240181      142.015207
2.14                 -1.35847101      141.231746      -5.93474993     -128.895792      -5.93474529     -128.895555      -1.35854822      141.234168
2.16                 -1.35509072      140.452102      -5.94732389     -129.687472       -5.9473188     -129.687235      -1.35516945      140.454629
2.18                 -1.35218197      139.673848      -5.95868707     -130.478138      -5.95868154     -130.477903      -1.35226229      139.676482
2.2                  -1.34974212      138.896876      -5.96883832     -131.267908      -5.96883238     -131.267677      -1.34982408       138.89962
2.22                 -1.34776907      138.121079      -5.97777642     -132.056902      -5.97777009     -132.056675      -1.34785272      138.123936
2.24                  -1.3462613       137.34635      -5.98550005     -132.845236      -5.98549338     -132.845016      -1.34634669      137.349323
2.26                 -1.34521782      136.572584      -5.99200781      -133.63303      -5.99200084     -133.632817      -1.34530499      136.575676
2.28                 -1.34463821      135.799675       -5.9972982     -134.420401      -5.99729099     -134.420196       -1.3447272       135.80289
2.3                  -1.34452258      135.027516      -6.00136964     -135.207466      -6.00136227     -135.207272      -1.34461342      135.030858
2.32                  -1.3448716      134.256004      -6.00422046     -135.994345        -6.004213     -135.994163      -1.34496432      134.259475
2.34                 -1.34568648      133.485031      -6.00584888     -136.781155      -6.00584144     -136.780986      -1.34578109      133.488636
2.36                 -1.34696898      132.714493      -6.00625305     -137.568014      -6.00624574     -137.567861       -1.3470655      132.718236
2.38                 -1.34872141      131.944283      -6.00543101     -138.355044      -6.00542395     -138.354907      -1.34881986      131.948168
2.4                  -1.35094665      131.174296      -6.00338072     -139.142362      -6.00337405     -139.142244      -1.35104702      131.178326
2.42                 -1.35364813      130.404423      -6.00010004      -139.93009      -6.00009392     -139.929992      -1.35375041      130.408603
2.44                 -1.35682987      129.634559      -5.99558674     -140.718349      -5.99558134     -140.718273      -1.35693405      129.638892
2.46                 -1.36049647      128.864594       -5.9898385      -141.50726      -5.98983401     -141.507208      -1.36060251      128.869086
2.48                  -1.3646531      128.094419      -5.98285292     -142.296947      -5.98284954      -142.29692      -1.36476098      128.099075
2.5                  -1.36930557      127.323926       -5.9746275     -143.087535      -5.97462546     -143.087534      -1.36941523      127.328749
2.52                 -1.37447035      126.552747      -5.96513144     -143.879399      -5.96513098     -143.879426      -1.37458174      126.557745
2.54                 -1.38014412      125.781022      -5.95439137     -144.672419      -5.95439273     -144.672476      -1.38025719      125.786198
2.56                 -1.38633461      125.008635      -5.94240455     -145.466724      -5.94240802     -145.466812      -1.38644927      125.013996
2.58                 -1.39305019      124.235473      -5.92916818     -146.262443      -5.92917404     -146.262564      -1.39316636      124.241023
2.6                  -1.40029995      123.461419      -5.91467938     -147.059707      -5.91468794     -147.059861      -1.40041754      123.467164
2.62                 -1.40809371      122.686356      -5.89893519     -147.858649      -5.89894677     -147.858837      -1.40821261      122.692301
2.64                 -1.41644202      121.910162      -5.88193259     -148.659403      -5.88194752     -148.659627      -1.41656211      121.916314
2.66                 -1.42535623      121.132717      -5.86366847     -149.462106       -5.8636871     -149.462366      -1.42547737      121.139081
2.68                 -1.43484846      120.353896       -5.8441397     -150.266897      -5.84416238     -150.267193      -1.43497053      120.360478
2.7                  -1.44493173      119.573574      -5.82334305     -151.073917      -5.82337014      -151.07425      -1.44505457      119.580379
2.72                 -1.45561991       118.79162      -5.80127524     -151.883308      -5.80130712     -151.883679      -1.45574335      118.798656
2.74                 -1.46692779      118.007905      -5.77793297     -152.695218      -5.77797001     -152.695625      -1.46705166      118.015177
2.76                 -1.47887114      117.222293      -5.75331286     -153.509794      -5.75335544     -153.510238      -1.47899525      117.229809
2.78                 -1.49146675      116.434649      -5.72741151     -154.327188         -5.72746     -154.327668      -1.49159089      116.442415
2.8                  -1.50473244      115.644832      -5.70022549     -155.147553      -5.70028026     -155.148069       -1.5048564      115.652855
2.82                 -1.51868719      114.852699      -5.67175132     -155.971048      -5.67181273     -155.971597      -1.51881075      114.860986
2.84                 -1.53335114      114.058103      -5.64198552     -156.797832      -5.64205392     -156.798415      -1.53347406      114.066662
2.86                 -1.54874567      113.260894      -5.61092459     -157.628071      -5.61100032     -157.628684      -1.54886771      113.269732
2.88                 -1.56489348      112.460918      -5.57856503      -158.46193      -5.57864838     -158.462572      -1.56501438      112.470043
2.9                  -1.58181866      111.658017      -5.54490334     -159.299582      -5.54499459     -159.300251      -1.58193813      111.667436
2.92                 -1.59954675      110.852029      -5.50993602     -160.141202      -5.51003542     -160.141894      -1.59966451      110.861751
2.94                 -1.61810486      110.042787      -5.47365962      -160.98697      -5.47376737     -160.987683      -1.61822061      110.052821
2.96                 -1.63752172      109.230121      -5.43607069     -161.837069      -5.43618696     -161.837799      -1.63763516      109.240474
2.98                 -1.65782784      108.413853      -5.39716586     -162.691687      -5.39729075     -162.692432      -1.65793864      108.424535
3                    -1.67905555      107.593804      -5.35694179     -163.551019      -5.35707536     -163.551774      -1.67916339      107.604824
3.02                 -1.70123917      106.769788      -5.31539524     -164.415263      -5.31553748     -164.416023       -1.7013437      106.781155
3.04                 -1.72441512      105.941612      -5.27252305     -165.284621      -5.27267387     -165.285384      -1.72451597      105.953336
3.06                 -1.74862202      105.109079      -5.22832216     -166.159305      -5.22848141     -166.160065      -1.74871883       105.12117
3.08                  -1.7739009      104.271986      -5.18278965     -167.039529      -5.18295709     -167.040281      -1.77399328      104.284455
3.1                   -1.8002953      103.430124      -5.13592276     -167.925514      -5.13609806     -167.926255      -1.80038288      103.442981
3.12                 -1.82785149      102.583277      -5.08771888      -168.81749      -5.08790163     -168.818213      -1.82793385      102.596534
3.14                 -1.85661862      101.731222      -5.03817564      -169.71569      -5.03836531     -169.716392      -1.85669534       101.74489
3.16                 -1.88664891      100.873731      -4.98729088     -170.620358      -4.98748685     -170.621033      -1.88671957      100.887822
3.18                 -1.91799793      100.010566      -4.93506273     -171.531742      -4.93526427     -171.532386      -1.91806209      100.025093
3.2                  -1.95072474       99.141485       -4.8814896     -172.450102       -4.8816959      -172.45071      -1.95078195      99.1564605
3.22                 -1.98489225      98.2662358      -4.82657031     -173.375703       -4.8267804     -173.376271      -1.98494204      98.2816735
3.24                 -2.02056739      97.3845595      -4.77030402     -174.308821      -4.77051687     -174.309346      -2.02060929      97.4004736
3.26                 -2.05782149      96.4961892      -4.71269041     -175.249741      -4.71290484     -175.250219      -2.05785502      96.5125945
3.28                 -2.09673058      95.6008496      -4.65372964     -176.198757       -4.6539444     -176.199184      -2.09675522      95.6177616
3.3                  -2.13737571      94.6982572      -4.59342247     -177.156174       -4.5936362     -177.156549      -2.13739095       94.715692
3.32                 -2.17984338      93.7881198      -4.53177035     -178.122307      -4.53198159     -178.122629       -2.1798487      93.8060944
3.34                 -2.22422594      92.8701367      -4.46877545     -179.097485      -4.46898266     -179.097753      -2.22422079       92.888669
3.36                 -2.27062205      91.9439984      -4.40444082      179.917954       -4.4046424       179.91774      -2.27060586      91.9631071
3.38                 -2.31913716      91.0093866      -4.33877045      178.923658      -4.33896472      178.923497      -2.31910937      91.0290915
3.4                   -2.3698841      90.0659741      -4.27176942      177.919262      -4.27195467      177.919151      -2.36984409      90.0862961
3.42                  -2.4229836      89.1134251        -4.203444      176.904388      -4.20361848      176.904324      -2.42293077      89.1343861
3.44                 -2.47856502       88.151395      -4.13380184      175.878644      -4.13396379      175.878622      -2.47849872      88.1730184
3.46                   -2.536767      87.1795308      -4.06285206      174.841621      -4.06299974      174.841635      -2.53668656      87.2018413
3.48                 -2.59773828      86.1974714      -3.99060552      173.792896      -3.99073723      173.792939      -2.59764302      86.2204951
3.5                  -2.66163853      85.2048478      -3.91707493      172.732031      -3.91718902      172.732095      -2.66152773      85.2286128
3.52                 -2.72863933      84.2012842      -3.84227511      171.658571      -3.84237002      171.658645      -2.72851223      84.2258199
3.54                 -2.79892516      83.1863978      -3.76622321      170.572043      -3.76629749      170.572116      -2.79878098       83.211736
3.56                 -2.87269461      82.1598005      -3.68893897      169.471958      -3.68899133      169.472017      -2.87253249       82.185975
3.58                 -2.95016156      81.1210997      -3.61044498      168.357809      -3.61047428       168.35784      -2.94998063      81.1481467
3.6                  -3.03155667      80.0698997        -3.530767       167.22907       -3.5307723      167.229059      -3.03135599       80.097858
3.62                 -3.11712563      79.0057067       -3.4499369      166.085108      -3.44991751      166.085039      -3.11690419      79.0346186
3.64                 -3.20713988      77.9282226      -3.36798557      164.925456      -3.36794103      164.925312      -3.20689662      77.9581327
3.66                 -3.30189025      76.8370537      -3.28495026      163.749534      -3.28488041      163.749297        -3.301624      76.8680106
3.68                 -3.40169161      75.7318126      -3.20087285      162.556744      -3.20077782      162.556398      -3.40140111      75.7638683