! TOUCHSTONE file generated by CST MICROWAVE STUDIO
! Date and time: Tue Oct 21 13:47:28 2025
! Project name: Untitled_0.cst
! Parameters = {E4_4=4.4; E4_3=0.85; E4_2=9.925; E4_1=10.075; E3_4=4.25; E3_3=0.85; E3_2=9.7; E3_1=10.3; E2_4=0.85; E2_3=-0.85; E2_2=11.85; E2_1=8.15; y=0.017; x=0; Tr6=-2; Tr5=2; Tr4=11; Tr3=2; Tr2=15; Tr1=-5; g3=3; g2=2; g1=0.15; E1_4=1; E1_3=-1; E1_2=12; E1_1=8; SP3_2_6=3.5; SP3_2_5=3.5; SP3_2_4=0.5; SP3_2_3=2; SP3_2_2=1; SP3_2_1=9.15; SP3_1_6=14.4; SP3_1_5=13.4; SP3_1_4=12.4; SP3_1_3=11.4; SP3_1_2=10.4; SP3_1_1=9.4; SP10_2=8.15; SP10_1=12; SP10=11; SP9_2=8.15; SP9_1=12; SP9=11; SP8_2=8.15; SP8_1=2.6; SP8=2.6; SP7_2=8.15; SP7_1=2.6; SP7=2.6; SP6_2=8.4; SP6_1=19.4; SP6=12.4; SP5_2=8.4; SP5_1=17.4; SP5=13.4; SP4_2=8.15; SP4_1=8.4; SP4=4.6; SP3_2=8.15; SP3_1=8.4; SP3=4.6; SP2_2=3.5; SP2_1=3; SP2=0.4; SP1_2=3.5; SP1_1=3; SP1=0.4; S7_2=3.5; S7_1=6; S7=3.8; S6_2=3; S6_1=6; S6=3.8; S5_2=3; S5_1=17.4; S5=15.2; S4_2=3; S4_1=24; S4=22.6; S3_2=2; S3_1=18.6; S3=17; S2_2=3; S2_1=16.8; S2=15.2; S1_2=3; S1_1=8.4; S1=7; w_5=1.05; w_4=0.8; w_3=0.6; hs=0.2; p_3=7.6; p1=0.8; p=0.8; T4=0; x5=0.5; x4=0; x3=0; x2=0; x1=0.5; Tap_2=2; Tap_1=1; k3=0.1; k2=1.25; k1=1; T3=2; T2=4; T1=1.145; v5=1; v4=0.8; v3=3.4; v2=4; v1=0.4; Y2=0.15; Y1=0.15; g4=1; cpw=0.5; A2=3; A3=1.5; A1=0.15; b3=6; b2=3; b1=3; im1=1.2; c1=3; w2=0; w1=1.4; l1=0; v_sep=0.8; v_d=0.36; h4=0.1; h3=0.18; h2=0.15; h1=0.25; h=0.017; L=32; W=10}
! Header version: 2018
! Port assignment regex: !\s*Touchstone port\s*([0-9]+)\s*=\s*(CST MWS port|CST DS port)\s*([0-9]+|Zmin|Zmax)\s*\(\"(.*)\"\)(\s*mode\s*([0-9]+))?.*
! Touchstone port assignment:
! Touchstone port 1 = CST MWS port 1 ("")
! Touchstone port 2 = CST MWS port 2 ("")
# GHz S DB R 50
0                    -79.7526364     -148.587015   -0.00198385211     -0.01774174   -0.00198779083   -0.0177526555      -75.3703324      -112.36367
0.01                 -44.8814656     -91.8911062   -0.00296497072    -0.708789963   -0.00296497173    -0.708789953      -44.7390761     -91.8720711
0.02                 -38.8818063     -92.1673497   -0.00421600938     -1.40041071   -0.00421233806     -1.40040157      -38.8168906     -92.2153474
0.04                 -32.8412202     -93.3359416   -0.00754268227     -2.78526961   -0.00753249347     -2.78524738      -32.8149021     -93.4032218
0.06                 -29.2868796     -94.6446431    -0.0119974971     -4.17214652    -0.0119819646      -4.1721177      -29.2729118     -94.7083451
0.08                 -26.7535497     -95.9902152    -0.0176144548      -5.5608608    -0.0175948734     -5.56083137      -26.7453663     -96.0457584
0.1                  -24.7808905     -97.3517616    -0.0244270256     -6.95121482    -0.0244048663     -6.95119005      -24.7758917     -97.3980397
0.12                 -23.1636486     -98.7221513     -0.032468105     -8.34299294    -0.0324450927     -8.34297706       -23.160559     -98.7591454
0.14                 -21.7922849     -100.098182    -0.0417699885     -9.73595976    -0.0417482074      -9.7359553      -21.7903962     -100.126292
0.16                 -20.6014038     -101.478119    -0.0523643439     -11.1298573    -0.0523463722     -11.1298637      -20.6002902     -101.497916
0.18                 -19.5488254     -102.860869    -0.0642821155     -12.5243997    -0.0642711712     -12.5244111      -19.5482167     -102.872992
0.2                  -18.6057548     -104.245658    -0.0775531651      -13.919265     -0.077553178      -13.919265      -18.6054735      -104.25076
0.22                 -17.7944905     -105.608903      -0.09146157     -15.2965388    -0.0914769042     -15.2964928      -17.7944078     -105.617175
0.24                 -17.0566113       -106.9709     -0.106496156     -16.6703269     -0.106530195     -16.6701681      -17.0566485     -106.981272
0.26                 -16.3805721     -108.331116     -0.122631486     -18.0401823     -0.122682196     -18.0397963      -16.3806746     -108.342858
0.28                 -15.7573948     -109.689127       -0.1398112     -19.4055821      -0.13986081     -19.4048158      -15.7575246     -109.701745
0.3                  -15.1799616     -111.044591     -0.157919685     -20.7660868     -0.157921195     -20.7648605      -15.1800928     -111.057756
0.32                 -14.6425385     -112.397203      -0.17677822     -22.1218361     -0.176668204     -22.1204156      -14.6426535     -112.410701
0.34                 -14.1404383     -113.746624     -0.196259377     -23.4740847     -0.196032713     -23.4731321      -14.1405253     -113.760321
0.36                 -13.6697666     -115.092456     -0.216476653      -24.824421     -0.216223572     -24.8243382      -13.6698185     -115.106279
0.38                 -13.2272419     -116.434357     -0.237705058     -26.1729486     -0.237511576     -26.1734871      -13.2272547     -116.448272
0.4                  -12.8100801     -117.772094     -0.260094731      -27.518369     -0.259977961     -27.5191011      -12.8100522     -117.786098
0.42                 -12.4159064     -119.105494     -0.283618962     -28.8594137     -0.283558821     -28.8600909      -12.4158382     -119.119601
0.44                 -12.0426793      -120.43439     -0.308187251     -30.1953886     -0.308160755     -30.1959313      -12.0425721     -120.448628
0.46                 -11.6886276      -121.75861     -0.333715201     -31.5259936      -0.33370653     -31.5264005      -11.6884835     -121.773015
0.48                 -11.3522033     -123.077984     -0.360138389     -32.8510956     -0.360138314     -32.8513898      -11.3520249     -123.092595
0.5                  -11.0320444     -124.392345     -0.387407784     -34.1706141     -0.387411301     -34.1708214      -11.0318345     -124.407204
0.52                 -10.7269456     -125.701535     -0.415483615     -35.4844783     -0.415488145      -35.484621      -10.7267073     -125.716682
0.54                 -10.4358347     -127.005404       -0.4443312     -36.7926155      -0.44433549     -36.7927109      -10.4355709     -127.020879
0.56                 -10.1577531     -128.303811     -0.473918518     -38.0949494      -0.47392203     -38.0950107      -10.1574666     -128.319652
0.58                 -9.89183993     -129.596625     -0.504214881      -39.391402     -0.504217451     -39.3914388      -9.89153341     -129.612868
0.6                  -9.63731885     -130.883726     -0.535190227     -40.6818953     -0.535191884     -40.6819149      -9.63699484       -130.9004
0.62                 -9.39348699     -132.164999     -0.566814744     -41.9663533     -0.566815607     -41.9663611      -9.39314775     -132.182134
0.64                  -9.1597056     -133.440343     -0.599058687     -43.2447034     -0.599058912     -43.2447034      -9.15935315     -133.457962
0.65                  -9.0463998     -134.075761     -0.615403645     -43.8815665     -0.615403612     -43.8815637      -9.04604143     -134.093631
0.66                 -8.93613043     -134.708929     -0.631783293     -44.5161512     -0.631783043     -44.5161462      -8.93576651     -134.727057
0.68                 -8.72220616     -135.970668     -0.664943163     -45.7806279     -0.664942594     -45.7806202      -8.72183227     -135.989325
0.7                  -8.51669775     -137.226219     -0.698612224     -47.0388068     -0.698611475     -47.0387979      -8.51631518      -137.24542
0.72                 -8.31915485     -138.475521     -0.732760636     -48.2906439     -0.732759829      -48.290635      -8.31876467     -138.495276
0.74                 -8.12916196      -139.71852     -0.767358641     -49.5361013     -0.767357879     -49.5360932      -8.12876503     -139.738839
0.76                 -7.94633473      -140.95517     -0.802376601     -50.7751468     -0.802375967       -50.77514      -7.94593173      -140.97606
0.78                 -7.77031683     -142.185434     -0.837785032     -52.0077544     -0.837784592     -52.0077493      -7.76990825     -142.206899
0.8                  -7.60077715     -143.409281     -0.873554639     -53.2339037     -0.873554444     -53.2339006      -7.60036335     -143.431323
0.82                 -7.43740739     -144.626686     -0.909656355     -54.4535806     -0.909656442     -54.4535795      -7.43698857     -144.649306
0.84                 -7.27991991     -145.837632     -0.946061372     -55.6667763     -0.946061764     -55.6667773      -7.27949616     -145.860829
0.86                 -7.12832552     -147.041818     -0.982673471     -56.8731986     -0.982674182     -56.8732016      -7.12789681     -147.065591
0.88                 -6.98208625     -148.239539      -1.01952802     -58.0731487      -1.01952905     -58.0731535      -6.98165249     -148.263885
0.9                  -6.84096602     -149.430799      -1.05659726     -59.2666356      -1.05659861     -59.2666423      -6.84052705     -149.455714
0.92                 -6.70474311     -150.615605      -1.09385381     -60.4536739      -1.09385547     -60.4536822      -6.70429873     -150.641085
0.94                 -6.57320897     -151.793973      -1.13127071     -61.6342826      -1.13127265     -61.6342924      -6.57275894     -151.820012
0.96                 -6.44616719     -152.965922      -1.16882141     -62.8084857      -1.16882363     -62.8084968      -6.44571124     -152.992514
0.98                 -6.32343255     -154.131475      -1.20647983     -63.9763116      -1.20648228     -63.9763238      -6.32297041     -154.158614
1                    -6.20483017     -155.290661      -1.24422032     -65.1377931      -1.24422299     -65.1378061      -6.20436155     -155.318342
1.02                 -6.09019477     -156.443514      -1.28201775     -66.2929669       -1.2820206     -66.2929807       -6.0897194      -156.47173
1.04                 -5.97936993     -157.590071      -1.31984744     -67.4418739      -1.31985044     -67.4418882      -5.97888757     -157.618816
1.06                 -5.87220755     -158.730374      -1.35768524     -68.5845585      -1.35768835     -68.5845732      -5.87171795     -158.759642
1.08                 -5.76856721     -159.864467      -1.39550747     -69.7210688      -1.39551067     -69.7210837      -5.76807017     -159.894253
1.1                  -5.66831567       -160.9924      -1.43329101     -70.8514562      -1.43329425      -70.851471      -5.66781103     -161.022698
1.12                 -5.57132645     -162.114224      -1.47101322      -71.975775      -1.47101647     -71.9757898      -5.57081406     -162.145029
1.14                 -5.47747932     -163.229994      -1.50865201     -73.0940829      -1.50865524     -73.0940974      -5.47695908     -163.261302
1.16                 -5.38665996     -164.339768      -1.54618581       -74.20644      -1.54618899     -74.2064541      -5.38613181     -164.371575
1.18                 -5.29875961     -165.443607      -1.58359358     -75.3129093      -1.58359666     -75.3129229      -5.29822352     -165.475907
1.2                  -5.21367468     -166.541573      -1.62085479     -76.4135562      -1.62085775     -76.4135691      -5.21313067     -166.574364
1.22                  -5.1313065     -167.633732      -1.65794945     -77.5084481      -1.65795227     -77.5084604      -5.13075462      -167.66701
1.23                 -5.09111163     -168.177654      -1.67642821     -78.0537577      -1.67643095     -78.0537696      -5.09055584     -168.211175
1.24                 -5.05162018     -168.720115      -1.69483097     -78.5976193      -1.69483361     -78.5976307      -5.05106051     -168.753878
1.26                 -4.97452364     -169.800801      -1.73147938     -79.6811507      -1.73148183     -79.6811613       -4.9739563     -169.835047
1.28                 -4.89987136       -170.8759       -1.7679031     -80.7591549      -1.76790532     -80.7591645       -4.8992965     -170.910627
1.3                  -4.82758169     -171.945484      -1.80408429     -81.8317074      -1.80408626      -81.831716      -4.82699949      -171.98069
1.32                 -4.75757667     -173.009629       -1.8400056     -82.8988854       -1.8400073     -82.8988929      -4.75698735     -173.045312
1.34                 -4.68978184     -174.068409      -1.87565021     -83.9607672      -1.87565163     -83.9607736      -4.68918563     -174.104569
1.36                 -4.62412602     -175.121902      -1.91100178     -85.0174327       -1.9110029      -85.017438      -4.62352317     -175.158537
1.38                  -4.5605412     -176.170185      -1.94604444     -86.0689628      -1.94604524     -86.0689668      -4.55993198     -176.207295
1.4                  -4.49896235     -177.213337       -1.9807628     -87.1154393      -1.98076328     -87.1154421      -4.49834705     -177.250921
1.42                 -4.43932728     -178.251437      -2.01514195     -88.1569452      -2.01514209     -88.1569468      -4.43870617     -178.289495
1.44                 -4.38157648     -179.284566      -2.04916743     -89.1935641      -2.04916723     -89.1935646      -4.38094988     -179.323097
1.45                 -4.35338981     -179.799292      -2.06604314     -89.7100674      -2.06604277     -89.7100672      -4.35276056     -179.838059
1.46                 -4.32569512      179.687194      -2.08280035     -90.2253816       -2.0827998     -90.2253809      -4.32506331       179.64819
1.48                 -4.27162698      178.663753      -2.11602669     -91.2524916      -2.11602579     -91.2524896      -4.27099026      178.624275
1.5                  -4.21927731      177.645028      -2.14885808      -92.274982      -2.14885683     -92.2749788      -4.21863597      177.605077
1.52                 -4.16859625      176.630936      -2.18128187      -93.292939      -2.18128026     -93.2929346      -4.16795058      176.590512
1.54                 -4.11953608      175.621395      -2.21328581     -94.3064493      -2.21328386     -94.3064437      -4.11888636      175.580499
1.56                 -4.07205112      174.616322      -2.24485806        -95.3156      -2.24485576     -95.3155933       -4.0713976      174.574955
1.58                 -4.02609761      173.615635      -2.27598715     -96.3204785      -2.27598451     -96.3204707      -4.02544057      173.573797
1.6                   -3.9816337      172.619251      -2.30666201     -97.3211724      -2.30665903     -97.3211635      -3.98097336      172.576943
1.62                 -3.93861928      171.627088      -2.33687191     -98.3177692       -2.3368686     -98.3177593      -3.93795587       171.58431
1.64                 -3.89701598      170.639062       -2.3666065      -99.310357      -2.36660288     -99.3103461      -3.89634969      170.595816
1.66                 -3.85678706      169.655091      -2.39585577     -100.299024      -2.39585185     -100.299012      -3.85611808      169.611379
1.68                 -3.81789735      168.675092      -2.42461005     -101.283857      -2.42460583     -101.283844      -3.81722584      168.630916
1.7                   -3.7803132      167.698983      -2.45285999     -102.264945       -2.4528555     -102.264931       -3.7796393      167.654346
1.72                 -3.74400239      166.726683      -2.48059657     -103.242376      -2.48059181     -103.242361      -3.74332621      166.681586
1.74                 -3.70893411      165.758108      -2.50781106     -104.216237      -2.50780606     -104.216222      -3.70825576      165.712555
1.76                 -3.67507889      164.793178      -2.53449505     -105.186617      -2.53448981     -105.186601      -3.67439844      164.747171
1.78                 -3.64240856      163.831811       -2.5606404     -106.153602      -2.56063495     -106.153586      -3.64172604      163.785355
1.8                  -3.61089616      162.873926      -2.58623925     -107.117281      -2.58623361     -107.117264      -3.61021162      162.827024
1.82                 -3.58051595      161.919441      -2.61128403     -108.077741      -2.61127821     -108.077723      -3.57982941      161.872098
1.84                 -3.55124335      160.968277      -2.63576742     -109.035068      -2.63576144      -109.03505      -3.55055479      160.920498
1.86                 -3.52305489      160.020353      -2.65968234     -109.989351      -2.65967623     -109.989332      -3.52236429      159.972142
1.88                 -3.49592816      159.075589      -2.68302198     -110.940675      -2.68301575     -110.940656      -3.49523547      159.026953
1.9                   -3.4698418      158.133906      -2.70577975     -111.889127      -2.70577342     -111.889108      -3.46914697       158.08485
1.92                 -3.44477547      157.195224      -2.72794929     -112.834794      -2.72794289     -112.834775      -3.44407843      157.145755
1.94                 -3.42070978      156.259463      -2.74952447     -113.777763      -2.74951801     -113.777743      -3.42001044      156.209589
1.96                 -3.39762629      155.326547      -2.77049937     -114.718118      -2.77049287     -114.718098      -3.39692457      155.276273
1.98                 -3.37550749      154.396395      -2.79086826     -115.655946      -2.79086175     -115.655926      -3.37480328       154.34573
2                    -3.35433674       153.46893      -2.81062563     -116.591332      -2.81061914     -116.591312      -3.35362994      153.417882
2.02                 -3.33409826      152.544074      -2.82976616     -117.524361       -2.8297597     -117.524342      -3.33338875      152.492651
2.04                 -3.31477711      151.621749      -2.84828471      -118.45512      -2.84827829       -118.4551      -3.31406479      151.569959
2.06                 -3.29635918      150.701879      -2.86617631     -119.383693      -2.86616996     -119.383673      -3.29564393      150.649731
2.08                 -3.27883114      149.784385      -2.88343618     -120.310164      -2.88342993     -120.310145      -3.27811284      149.731889
2.1                  -3.26218043      148.869191       -2.9000597     -121.234619      -2.90005356       -121.2346      -3.26145898      148.816356
2.12                 -3.24639526       147.95622      -2.91604242     -122.157141       -2.9160364     -122.157123      -3.24567056      147.903056
2.14                 -3.23146457      147.045396      -2.93138002     -123.077816      -2.93137416     -123.077798      -3.23073652      146.991913
2.16                 -3.21737802      146.136642      -2.94606837     -123.996728      -2.94606267     -123.996711      -3.21664654       146.08285
2.18                 -3.20412598      145.229882      -2.96010344     -124.913961      -2.96009794     -124.913944        -3.203391      145.175792
2.2                  -3.19169952       144.32504       -2.9734814     -125.829598       -2.9734761     -125.829582      -3.19096099      144.270662
2.22                  -3.1800904       143.42204       -2.9861985     -126.743725      -2.98619342     -126.743709      -3.17934826      143.367385
2.24                 -3.16929102      142.520805      -2.99825115     -127.656424      -2.99824631     -127.656409      -3.16854526      142.465884
2.26                 -3.15929448      141.621261      -3.00963589     -128.567781      -3.00963131     -128.567766      -3.15854509      141.566084
2.28                  -3.1500945       140.72333      -3.02034939     -129.477878      -3.02034508     -129.477864      -3.14934149      140.667909
2.3                  -3.14168547      139.826937      -3.03038842       -130.3868      -3.03038439     -130.386788      -3.14092888      139.771283
2.32                  -3.1340624      138.932006      -3.03974988     -131.294631      -3.03974615      -131.29462      -3.13330229      138.876129
2.34                 -3.12722093       138.03846       -3.0484308     -132.201455      -3.04842738     -132.201445      -3.12645739      137.982373
2.36                 -3.12115733      137.146225       -3.0564283     -133.107357       -3.0564252     -133.107347      -3.12039047      137.089936
2.38                 -3.11586851      136.255222      -3.06373961     -134.012419      -3.06373686     -134.012411      -3.11509846      136.198744
2.4                  -3.11135197      135.365376       -3.0703621     -134.916728      -3.07035969     -134.916721      -3.11057891      135.308719
2.42                 -3.10760584      134.476609       -3.0762932     -135.820368      -3.07629114     -135.820361      -3.10682997      134.419785
2.44                 -3.10462888      133.588845      -3.08153048     -136.723422      -3.08152879     -136.723417      -3.10385042      133.531864
2.46                 -3.10242044      132.702007       -3.0860716     -137.625978      -3.08607027     -137.625974      -3.10163966      132.644879
2.48                 -3.10098053      131.816017      -3.08991431     -138.528119      -3.08991336     -138.528116      -3.10019771      131.758752
2.5                  -3.10030973      130.930796      -3.09305647     -139.429932       -3.0930559      -139.42993       -3.0995252      130.873405
2.52                 -3.10043447      130.046069       -3.0954712     -140.331697      -3.09547102     -140.331697      -3.09964859      129.988561
2.54                 -3.10133047       129.16195      -3.09718232     -141.233312      -3.09718254     -141.233312      -3.10054363      129.104334
2.56                 -3.10300021       128.27836      -3.09818801     -142.134861      -3.09818862     -142.134863      -3.10221283      128.220646
2.58                 -3.10544682      127.395219      -3.09848654     -143.036433      -3.09848755     -143.036436      -3.10465938      127.337416
2.6                   -3.1086741      126.512447      -3.09807629     -143.938114       -3.0980777     -143.938118      -3.10788708      126.454564
2.62                 -3.11268648      125.629963      -3.09695572     -144.839992      -3.09695752     -144.839998      -3.11190042      125.572009
2.64                 -3.11748906      124.747687       -3.0951234     -145.742157       -3.0951256     -145.742164      -3.11670454      124.689669
2.66                 -3.12308763      123.865537        -3.092578     -146.644696      -3.09258059     -146.644704      -3.12230525      123.807463
2.68                 -3.12948867      122.983429       -3.0893183     -147.547699      -3.08932127     -147.547709      -3.12870908      122.925308
2.7                  -3.13669936      122.101282      -3.08534314     -148.451257      -3.08534651     -148.451267      -3.13592324       122.04312
2.72                 -3.14472761       121.21901      -3.08065153     -149.355459      -3.08065527     -149.355472      -3.14395567      121.160814
2.74                 -3.15358205      120.336529      -3.07524253     -150.260399      -3.07524664     -150.260412      -3.15281505      120.278307
2.76                 -3.16327209      119.453754      -3.06911534     -151.166168      -3.06911981     -151.166182      -3.16251082      119.395511
2.78                 -3.17380789      118.570598      -3.06226926     -152.072858      -3.06227408     -152.072874      -3.17305318       118.51234
2.8                  -3.18520043      117.686974       -3.0547037     -152.980565      -3.05470887     -152.980582      -3.18445315      117.628706
2.82                 -3.19746151      116.802792      -3.04641821     -153.889382      -3.04642372       -153.8894      -3.19672256       116.74452
2.84                 -3.21060375      115.917965      -3.03741245     -154.799406      -3.03741827     -154.799425      -3.20987409      115.859694
2.86                 -3.22464068      115.032401      -3.02768619     -155.710732      -3.02769232     -155.710752      -3.22392128      114.974135
2.88                 -3.23958671       114.14601      -3.01723936     -156.623459      -3.01724578     -156.623479      -3.23887858      114.087753
2.9                  -3.25545717      113.258698        -3.006072     -157.537684       -3.0060787     -157.537706      -3.25476139      113.200454
2.92                 -3.27226839      112.370372      -2.99418432     -158.453509      -2.99419127     -158.453531      -3.27158605      112.312145
2.94                 -3.29003768      111.480937      -2.98157665     -159.371032      -2.98158384     -159.371055      -3.28936992       111.42273
2.96                 -3.30878338      110.590297      -2.96824949     -160.290357       -2.9682569      -160.29038      -3.30813138      110.532114
2.98                 -3.32852493      109.698355       -2.9542035     -161.211585       -2.9542111     -161.211609       -3.3278899      109.640198
3                    -3.34928288      108.805013      -2.93943949     -162.134822      -2.93944727     -162.134847      -3.34866609      108.746883
3.02                 -3.37107895      107.910169      -2.92395847     -163.060173       -2.9239664     -163.060198      -3.37048169       107.85207
3.04                 -3.39393607      107.013724      -2.90776161     -163.987745      -2.90776967      -163.98777      -3.39335968      106.955658
3.06                 -3.41787844      106.115574      -2.89085029     -164.917646      -2.89085845     -164.917671      -3.41732432      106.057543
3.08                 -3.44293159      105.215616      -2.87322609     -165.849985      -2.87323433      -165.85001      -3.44240117      105.157621
3.1                  -3.46912244      104.313744      -2.85489079     -166.784874      -2.85489907     -166.784899      -3.46861718      104.255787
3.12                 -3.49647934      103.409851      -2.83584639     -167.722425      -2.83585468      -167.72245      -3.49600076      103.351934
3.14                 -3.52503215       102.50383      -2.81609513     -168.662752      -2.81610341     -168.662777      -3.52458181      102.445953
3.16                 -3.55481232       101.59557       -2.7956395     -169.605971      -2.79564773     -169.605995      -3.55439185      101.537736
3.18                 -3.58585297       100.68496      -2.77448223     -170.552198      -2.77449038     -170.552222      -3.58546402      100.627169
3.2                  -3.61818896      99.7718867      -2.75262632     -171.501553      -2.75263436     -171.501577      -3.61783323      99.7141422
3.22                 -3.65185695      98.8562371      -2.73007507     -172.454156      -2.73008295     -172.454179      -3.65153621      98.7985397
3.24                 -3.68689555       97.937895      -2.70683206      -173.41013      -2.70683975     -173.410152       -3.6866116      97.8802465
3.26                 -3.72334537      97.0167432      -2.68290118     -174.369597      -2.68290865     -174.369618      -3.72310009      96.9591456
3.28                 -3.76124916      96.0926631      -2.65828667     -175.332684      -2.65829387     -175.332704      -3.76104446      96.0351186
3.3                  -3.80065188      95.1655347      -2.63299308     -176.299519      -2.63299998     -176.299538      -3.80048975      95.1080459
3.32                 -3.84160087      94.2352366      -2.60702536      -177.27023       -2.6070319     -177.270248      -3.84148333      94.1778063
3.34                 -3.88414593      93.3016459       -2.5803888     -178.244949      -2.58039496     -178.244965      -3.88407508      93.2442774
3.36                 -3.92833951      92.3646385      -2.55308913     -179.223809      -2.55309485     -179.223824       -3.9283175      92.3073356
3.38                 -3.97423678      91.4240892      -2.52513246      179.793054       -2.5251377      179.793041      -3.97426584      91.3668562
3.4                  -4.02189587      90.4798714      -2.49652538      178.805505       -2.4965301      178.805494      -4.02197827      90.4227132
3.42                 -4.07137798      89.5318575      -2.46727493      177.813404      -2.46727907      177.813395      -4.07151608      89.4747798
3.44                 -4.12274759       88.579919      -2.43738861      176.816611      -2.43739213      176.816603      -4.12294381      88.5229282
3.46                 -4.17607264      87.6239265      -2.40687448      175.814982      -2.40687733      175.814976      -4.17632947      87.5670298
3.48                 -4.23142474      86.6637499      -2.37574109      174.808372      -2.37574323      174.808368      -4.23174474      86.6069555
3.5                  -4.28887939      85.6992586       -2.3439976      173.796635      -2.34399897      173.796633       -4.2892652      85.6425757
3.52                 -4.34851623      84.7303215      -2.31165373      172.779622      -2.31165428      172.779622      -4.34897057      84.6737605
3.54                 -4.41041929      83.7568076      -2.27871983      171.757182      -2.27871952      171.757185      -4.41094495      83.7003801
3.56                 -4.47467727      82.7785858       -2.2452069      170.729163      -2.24520568      170.729167      -4.47527713      82.7223047
3.58                 -4.54138385      81.7955254      -2.21112664       169.69541      -2.21112445      169.695416      -4.54206087      81.7394052
3.6                    -4.610638      80.8074965      -2.17649145      168.655766      -2.17648824      168.655774      -4.61139522      80.7515531
3.62                 -4.68253977      79.8142891      -2.14131652      167.609999      -2.14131226      167.610009      -4.68338031        79.75854
3.64                 -4.75720345       78.815858      -2.10561413      166.558024      -2.10560875      166.558036      -4.75813054      78.7603226
3.66                 -4.83474608      77.8120774      -2.06939902       165.49968       -2.0693925      165.499694      -4.83576304      77.7567776
3.68                 -4.91529162      76.8028241      -2.03268683      164.434804      -2.03267911       164.43482      -4.91640185      76.7477837