! TOUCHSTONE file generated by CST MICROWAVE STUDIO
! Date and time: Tue Oct 21 13:47:28 2025
! Project name: Untitled_0.cst
! Parameters = {E4_4=4.4; E4_3=0.85; E4_2=9.925; E4_1=10.075; E3_4=4.25; E3_3=0.85; E3_2=9.7; E3_1=10.3; E2_4=0.85; E2_3=-0.85; E2_2=11.85; E2_1=8.15; y=0.017; x=0; Tr6=-2; Tr5=2; Tr4=11; Tr3=2; Tr2=15; Tr1=-5; g3=3; g2=2; g1=0.15; E1_4=1; E1_3=-1; E1_2=12; E1_1=8; SP3_2_6=3.5; SP3_2_5=3.5; SP3_2_4=0.5; SP3_2_3=2; SP3_2_2=1; SP3_2_1=9.15; SP3_1_6=14.4; SP3_1_5=13.4; SP3_1_4=12.4; SP3_1_3=11.4; SP3_1_2=10.4; SP3_1_1=9.4; SP10_2=8.15; SP10_1=12; SP10=11; SP9_2=8.15; SP9_1=12; SP9=11; SP8_2=8.15; SP8_1=2.6; SP8=2.6; SP7_2=8.15; SP7_1=2.6; SP7=2.6; SP6_2=8.4; SP6_1=19.4; SP6=12.4; SP5_2=8.4; SP5_1=17.4; SP5=13.4; SP4_2=8.15; SP4_1=8.4; SP4=4.6; SP3_2=8.15; SP3_1=8.4; SP3=4.6; SP2_2=3.5; SP2_1=3; SP2=0.4; SP1_2=3.5; SP1_1=3; SP1=0.4; S7_2=3.5; S7_1=6; S7=3.8; S6_2=3; S6_1=6; S6=3.8; S5_2=3; S5_1=17.4; S5=15.2; S4_2=3; S4_1=24; S4=22.6; S3_2=2; S3_1=18.6; S3=17; S2_2=3; S2_1=16.8; S2=15.2; S1_2=3; S1_1=8.4; S1=7; w_5=1.05; w_4=0.8; w_3=0.6; hs=0.2; p_3=7.6; p1=0.8; p=0.8; T4=0; x5=0.5; x4=0; x3=0; x2=0; x1=0.5; Tap_2=2; Tap_1=1; k3=0.1; k2=1.25; k1=1; T3=2; T2=4; T1=1.145; v5=1; v4=0.8; v3=3.4; v2=4; v1=0.4; Y2=0.15; Y1=0.15; g4=1; cpw=0.5; A2=3; A3=1.5; A1=0.15; b3=6; b2=3; b1=3; im1=1.8; c1=3; w2=0; w1=1.4; l1=0; v_sep=0.8; v_d=0.36; h4=0.1; h3=0.18; h2=0.15; h1=0.25; h=0.017; L=32; W=10}
! Header version: 2018
! Port assignment regex: !\s*Touchstone port\s*([0-9]+)\s*=\s*(CST MWS port|CST DS port)\s*([0-9]+|Zmin|Zmax)\s*\(\"(.*)\"\)(\s*mode\s*([0-9]+))?.*
! Touchstone port assignment:
! Touchstone port 1 = CST MWS port 1 ("")
! Touchstone port 2 = CST MWS port 2 ("")
# GHz S DB R 50
0                    -69.3835176      -104.88053   -0.00337663001   -0.0183471336   -0.00352799264    -0.018529452      -76.2140394     -175.062655
0.01                 -41.2790401     -92.0878871   -0.00358490061    -0.832429368   -0.00358490922    -0.832429377      -41.5885211     -92.1334605
0.02                 -35.4118824      -92.559475   -0.00452039918     -1.64955795   -0.00435519066     -1.65009501      -35.5612568     -92.4701947
0.04                 -29.4489085     -93.9788711   -0.00933010397     -3.29069582   -0.00918407215     -3.29400373      -29.5164145     -93.8499334
0.06                 -25.9292138      -95.511922    -0.0183435159     -4.93030695    -0.0186376991      -4.9336178      -25.9690226     -95.3895876
0.08                 -23.4203888     -97.0834665    -0.0301246871     -6.56201038    -0.0305218462     -6.56320656      -23.4463055      -96.977287
0.1                  -21.4694258     -98.6736151    -0.0438059353     -8.19030065     -0.044087037     -8.19032388      -21.4870679     -98.5861504
0.12                 -19.8733079     -100.272974    -0.0595174391     -9.81870062    -0.0596808216     -9.81839952      -19.8855418     -100.204598
0.14                 -18.5233127     -101.877202    -0.0775311329     -11.4478292    -0.0776170058     -11.4475366      -18.5318163     -101.827402
0.16                 -17.3544207     -103.484017    -0.0980244093     -13.0771496    -0.0980645472     -13.0769564      -17.3602686     -103.451869
0.18                 -16.3246556     -105.091934     -0.121095866     -14.7058259     -0.121110159     -14.7057383      -16.3285803     -105.076318
0.2                  -15.4053413     -106.699796     -0.146798395     -16.3329755     -0.146798627     -16.3329748      -15.4078642     -106.699505
0.22                  -14.610036      -108.29092     -0.173907737     -17.9327848     -0.173900799     -17.9328485      -14.6115653     -108.285614
0.24                 -13.8890872     -109.874427     -0.203229714     -19.5253731     -0.203219619     -19.5254809      -13.8898993     -109.866283
0.26                 -13.2309545     -111.450015     -0.234711907     -21.1101442     -0.234700961     -21.1102797      -13.2312603     -111.440491
0.28                 -12.6266502     -113.017329     -0.268295351     -22.6865446     -0.268284839     -22.6866952      -12.6266115     -113.007392
0.3                   -12.069033     -114.575992     -0.303916139     -24.2540603     -0.303906736     -24.2542166      -12.0687742     -114.566265
0.32                 -11.5523309      -116.12562     -0.341506472      -25.812214     -0.341498476     -25.8123691       -11.551947     -116.116483
0.34                 -11.0718078     -117.665828     -0.380995388     -27.3605641     -0.380988877     -27.3607131      -11.0713706     -117.657497
0.36                 -10.6235266     -119.196246     -0.422309349     -28.8987032     -0.422304269     -28.8988428      -10.6230895     -119.188816
0.38                  -10.204176     -120.716516     -0.465372719     -30.4262572     -0.465368941     -30.4263854      -10.2037774     -120.710003
0.4                   -9.8109416     -122.226302      -0.51010819     -31.9428851     -0.510105553     -31.9430006      -9.81060794     -122.220667
0.42                 -9.44140911     -123.725289     -0.556437171     -33.4482778     -0.556435496     -33.4483802      -9.44115725     -123.720461
0.44                 -9.09348974     -125.213186     -0.604280136     -34.9421578     -0.604279249     -34.9422471      -9.09332886     -125.209073
0.46                 -8.76536241     -126.689729     -0.653556959     -36.4242783     -0.653556694     -36.4243549      -8.76529567     -126.686231
0.48                 -8.45542825     -128.154677     -0.704187218     -37.8944223     -0.704187427     -37.8944869      -8.45545414     -128.151693
0.5                  -8.16227452     -129.607818     -0.756090484      -39.352402     -0.756091035     -39.3524555      -8.16238801      -129.60525
0.52                 -7.88464562     -131.048967     -0.809186584      -40.798058     -0.809187365     -40.7981013      -7.88483908     -131.046724
0.54                 -7.62141957     -132.477964     -0.863395847     -42.2312576     -0.863396764     -42.2312918      -7.62168363     -132.475965
0.56                 -7.37158888     -133.894674     -0.918639329     -43.6518946     -0.918640306     -43.6519208      -7.37191306     -133.892849
0.58                 -7.13424476     -135.298989     -0.974839016     -45.0598877     -0.974839994     -45.0599069      -7.13461806      -135.29728
0.6                  -6.90856402     -136.690826      -1.03191801     -46.4551792      -1.03191895     -46.4551926      -6.90897535     -136.689184
0.62                 -6.69379819     -138.070125       -1.0898007     -47.8377345      -1.08980156      -47.837743      -6.69423674     -138.068512
0.64                 -6.48926432     -139.436847       -1.1484129     -49.2075401      -1.14841367     -49.2075447      -6.48971987     -139.435237
0.65                 -6.39063693     -140.115486       -1.1779698     -49.8876632      -1.17797052     -49.8876661      -6.39109738      -140.11387
0.66                 -6.29486185     -140.790119       -1.2075197     -50.5637297      -1.20752036     -50.5637311      -6.29532504     -140.788459
0.68                 -6.10999182     -142.129966      -1.26703023     -51.9063497      -1.26703079     -51.9063488      -6.11045425     -142.128215
0.7                  -5.93359305     -143.457284      -1.32703135      -53.236333      -1.32703181     -53.2363306       -5.9340473     -143.455444
0.72                 -5.76517815     -144.772126      -1.38745626     -54.5537502      -1.38745663     -54.5537468      -5.76561794     -144.770203
0.74                 -5.60429639     -146.074562      -1.44824015     -55.8586867      -1.44824045      -55.858683      -5.60471658     -146.072566
0.76                 -5.45053002     -147.364677      -1.50932022     -57.1512419      -1.50932046     -57.1512382      -5.45092661     -147.362619
0.78                 -5.30349116      -148.64257      -1.57063574     -58.4315275      -1.57063595     -58.4315242      -5.30386126     -148.640464
0.8                  -5.16281897     -149.908352      -1.63212803      -59.699667      -1.63212822     -59.6996645      -5.16316074     -149.906213
0.82                 -5.02817729     -151.162148      -1.69374048     -60.9557942      -1.69374067     -60.9557928      -5.02848986     -151.159989
0.84                 -4.89925244     -152.404093      -1.75541856     -62.2000526      -1.75541877     -62.2000523       -4.8995358     -152.401925
0.86                 -4.77593907     -153.634027      -1.81701528     -63.4322849      -1.81701553     -63.4322859      -4.77619402     -153.631852
0.88                  -4.6577688     -154.852424      -1.87857015     -64.6529782      -1.87857045     -64.6529807      -4.65799675     -154.850252
0.9                  -4.54448491     -156.059447      -1.94003496     -65.8623002      -1.94003533     -65.8623041      -4.54468782     -156.057284
0.92                  -4.4358467     -157.255265      -2.00136347     -67.0604245      -2.00136392     -67.0604298      -4.43602694     -157.253116
0.94                 -4.33162827     -158.440052      -2.06251141     -68.2475296      -2.06251194     -68.2475362      -4.33178851     -158.437917
0.96                  -4.2316174     -159.613988      -2.12343641     -69.4237985      -2.12343702     -69.4238063       -4.2317605     -159.611866
0.98                 -4.13561455     -160.777256      -2.18409796     -70.5894177      -2.18409867     -70.5894267      -4.13574342     -160.775141
1                    -4.04343195     -161.930042      -2.24445739     -71.7445771      -2.24445818      -71.744587      -4.04354949     -161.927927
1.02                 -3.95489278     -163.072538      -2.30447777     -72.8894688      -2.30447864     -72.8894794      -3.95500175     -163.070412
1.04                 -3.86983042     -164.204933       -2.3641239     -74.0242868      -2.36412484     -74.0242981      -3.86993336     -164.202784
1.06                 -3.78808772     -165.327422      -2.42336222     -75.1492269      -2.42336322     -75.1492385      -3.78818689     -165.325236
1.08                  -3.7095164     -166.440197      -2.48216079     -76.2644855      -2.48216184     -76.2644973      -3.70961372     -166.437959
1.1                  -3.63397644     -167.543454      -2.54048921       -77.37026      -2.54049029     -77.3702717      -3.63407343     -167.541149
1.12                 -3.56133556     -168.637387      -2.59831856     -78.4667477      -2.59831965     -78.4667591      -3.56143332     -168.634998
1.14                 -3.49146871      -169.72219      -2.65562138     -79.5541459      -2.65562245     -79.5541568       -3.4915679     -169.719702
1.16                  -3.4242576     -170.798056      -2.71237155     -80.6326515      -2.71237258     -80.6326617      -3.42435844     -170.795456
1.18                 -3.35959029     -171.865178      -2.76854431     -81.7024607      -2.76854527       -81.70247      -3.35969258     -171.862453
1.2                  -3.29736078     -172.923746      -2.82411613     -82.7637686      -2.82411699     -82.7637768      -3.29746393     -172.920887
1.22                 -3.23746865     -173.973949      -2.87906472     -83.8167693      -2.87906546     -83.8167761      -3.23757171      -173.97095
1.23                 -3.20836917     -174.495973      -2.90629865     -84.3402147      -2.90629932     -84.3402208      -3.20847174     -174.492903
1.24                 -3.17985514     -175.015957      -2.93333486     -84.8616357      -2.93333545      -84.861641      -3.17995689     -175.012815
1.26                 -3.12442813     -176.049967      -2.98690573     -85.8985708      -2.98690612     -85.8985744      -3.12452715     -176.046684
1.28                   -3.071065     -177.076186      -3.03979223     -86.9277875      -3.03979241     -86.9277894      -3.07115974     -177.072768
1.3                  -3.01968455     -178.094796      -3.09197652     -87.9494735      -3.09197644     -87.9494735      -3.01977346     -178.091255
1.32                 -2.97020965     -179.105976      -3.14344168     -88.9638145      -3.14344132     -88.9638124      -2.97029128     -179.102331
1.34                 -2.92256705      179.890096      -3.19417173     -89.9709939      -3.19417105     -89.9709896      -2.92264021      179.893821
1.36                 -2.87668711      178.893245      -3.24415155     -90.9711932      -3.24415052     -90.9711867      -2.87675101      178.897019
1.38                 -2.83250367      177.903298      -3.29336684     -91.9645914      -3.29336543     -91.9645825       -2.8325581      177.907081
1.4                  -2.78995379      176.920084      -3.34180409     -92.9513653      -3.34180227     -92.9513542       -2.7899993      176.923831
1.42                 -2.74897763      175.943434      -3.38945052     -93.9316895      -3.38944826      -93.931676      -2.74901578       175.94709
1.44                 -2.70951825      174.973183      -3.43629407     -94.9057362      -3.43629134     -94.9057203      -2.70955189      174.976683
1.45                 -2.69034033      174.490405      -3.45941117     -95.3904586       -3.4594082     -95.3904416      -2.69037327      174.493801
1.46                 -2.67154657      174.009145      -3.48229348     -95.8736957      -3.48229026     -95.8736775      -2.67158018      174.012415
1.48                 -2.63500984      173.051147      -3.52743779     -96.8357457      -3.52743405     -96.8357252      -2.63504996        173.0541
1.5                  -2.59983359      172.099048      -3.57174665     -97.7920339      -3.57174237     -97.7920111      -2.59988947      172.101582
1.52                 -2.56597124      171.152689      -3.61521056     -98.7427229      -3.61520572      -98.742698      -2.56605563      171.154687
1.54                 -2.53337845      170.211915      -3.65782051      -99.687973       -3.6578151      -99.687946      -2.53350894      170.213237
1.56                 -2.50201307      169.276572      -3.69956803     -100.627942      -3.69956202     -100.627913      -2.50221396      169.277048
1.58                 -2.47183502      168.346508       -3.7404451     -101.562786      -3.74043848     -101.562755      -2.47214048      168.345932
1.6                   -2.4428062      167.421573      -3.78044419     -102.492658      -3.78043696     -102.492625      -2.44326565      167.419685
1.62                  -2.4148904      166.501621       -3.8195582     -103.417708      -3.81955036     -103.417674      -2.41557816      166.498085
1.64                 -2.38805325      165.586504      -3.85778051     -104.338087      -3.85777204     -104.338051      -2.38908744      165.580881
1.66                 -2.36226208      164.676079      -3.89510497      -105.25394      -3.89509587     -105.253903      -2.36384486      164.667798
1.68                 -2.33748593      163.770205      -3.93152602     -106.165411       -3.9315163     -106.165373      -2.33999862      163.758614
1.7                  -2.31369541      162.868741      -3.96703906     -107.072638      -3.96702873     -107.072599      -2.31794967      162.853736
1.72                 -2.29086267       161.97155      -4.00164084      -107.97574      -4.00162991     -107.975701      -2.29873242      161.958418
1.74                 -2.26896136      161.078496      -4.03532058     -108.874764      -4.03530906     -108.874724      -2.28206799       161.10612
1.76                 -2.24796656      160.189446      -4.06803679     -109.769992       -4.0680247     -109.769951      -2.25373088      160.276705
1.78                 -2.22785454      159.304267      -4.09983638     -110.661748      -4.09982373     -110.661708      -2.22701242       159.37186
1.8                  -2.20860301      158.422831      -4.13071558     -111.549916       -4.1307024     -111.549875       -2.2062833       158.47101
1.82                 -2.19019092      157.545008      -4.16065814     -112.434629      -4.16064447     -112.434589      -2.18760445      157.581902
1.84                 -2.17259839      156.670674       -4.1896581     -113.316035      -4.18964395     -113.315995      -2.17002461      156.700587
1.86                 -2.15580667      155.799704      -4.21771141     -114.194267      -4.21769683     -114.194228      -2.15331556      155.824904
1.88                 -2.13979812      154.931976       -4.2448145     -115.069457      -4.24479952     -115.069419      -2.13740499      154.953758
1.9                  -2.12455615       154.06737        -4.270964      -115.94173      -4.27094866     -115.941693      -2.12226108      154.086534
1.92                 -2.11006517      153.205768       -4.2961567     -116.811211      -4.29614104     -116.811176      -2.10786445      153.222839
1.94                 -2.09631058      152.347054      -4.32038953     -117.678024       -4.3203736      -117.67799      -2.09420016      152.362396
1.96                  -2.0832787      151.491112      -4.34365954      -118.54229      -4.34364339     -118.542257      -2.08125521       151.50499
1.98                 -2.07095674      150.637829      -4.36596392     -119.404128      -4.36594761     -119.404097      -2.06901767      150.650443
2                    -2.05933279      149.787094      -4.38729996     -120.263659      -4.38728353      -120.26363      -2.05747639        149.7986
2.02                 -2.04839574      148.938796      -4.40766506        -121.121      -4.40764858     -121.120973      -2.04662091       148.94932
2.04                 -2.03813532      148.092828      -4.42705674     -121.976269      -4.42704025     -121.976244      -2.03644137      148.102473
2.06                 -2.02854202      147.249082      -4.44547257     -122.829581      -4.44545615     -122.829558      -2.02692858      147.257935
2.08                 -2.01960705      146.407451      -4.46291025     -123.681052      -4.46289395     -123.681031      -2.01807397       146.41559
2.1                  -2.01132239      145.567832      -4.47936755     -124.530796      -4.47935144     -124.530778      -2.00986959      145.575322
2.12                 -2.00368071      144.730121      -4.49484232     -125.378928      -4.49482645     -125.378912      -2.00230814      144.737023
2.14                 -1.99667533      143.894216      -4.50933246      -126.22556      -4.50931691     -126.225547      -1.99538294      143.900583
2.16                 -1.99030029      143.060014      -4.52283596     -127.070805      -4.52282079     -127.070794      -1.98908792      143.065896
2.18                 -1.98455025      142.227417      -4.53535088     -127.914776      -4.53533616     -127.914767      -1.98341764      142.232858
2.2                   -1.9794205      141.396323      -4.54687531     -128.757583       -4.5468611     -128.757577      -1.97836728      141.401366
2.22                 -1.97490698      140.566633      -4.55740743      -129.59934       -4.5573938     -129.599335      -1.97393261      140.571318
2.24                 -1.97100622      139.738251      -4.56694546     -130.440155      -4.56693247     -130.440153      -1.97011001      139.742613
2.26                 -1.96771537      138.911076      -4.57548766     -131.280141      -4.57547538      -131.28014      -1.96689646      138.915151
2.28                 -1.96503217      138.085013      -4.58303236     -132.119408      -4.58302084     -132.119408      -1.96428955      138.088832
2.3                  -1.96295494      137.259965      -4.58957793     -132.958066      -4.58956724     -132.958068      -1.96228743      137.263556
2.32                 -1.96148262      136.435833      -4.59512278     -133.796226      -4.59511297     -133.796229      -1.96088888      136.439227
2.34                 -1.96061468      135.612523      -4.59966538     -134.633998       -4.5996565     -134.634002      -1.96009324      135.615744
2.36                 -1.96035123      134.789936      -4.60320422     -135.471493      -4.60319633     -135.471498      -1.95990046      134.793009
2.38                 -1.96069293      133.967977      -4.60573787     -136.308822        -4.605731     -136.308827      -1.96031107      133.970924
2.4                  -1.96164102       133.14655       -4.6072649     -137.146096      -4.60725911       -137.1461       -1.9613262      133.149392
2.42                 -1.96319735      132.325557      -4.60778397     -137.983425      -4.60777929     -137.983429      -1.96294759      132.328312
2.44                 -1.96536435      131.504901      -4.60729374     -138.820921       -4.6072902     -138.820924      -1.96517756      131.507588
2.46                 -1.96814504      130.684485      -4.60579295     -139.658696      -4.60579059     -139.658698      -1.96801906      130.687118
2.48                 -1.97154307       129.86421      -4.60328037     -140.496861      -4.60327919     -140.496862      -1.97147565      129.866805
2.5                  -1.97556267      129.043979       -4.5997548     -141.335531      -4.59975484      -141.33553      -1.97555152      129.046547
2.52                 -1.98022386      128.223464        -4.595188     -142.175045      -4.59518925     -142.175041      -1.98026665      128.226013
2.54                 -1.98551651      127.402789      -4.58960701     -143.015295      -4.58960948     -143.015288      -1.98561086      127.405327
2.56                  -1.9914468      126.581852      -4.58301082     -143.856395      -4.58301451     -143.856385      -1.99159031      126.584389
2.58                 -1.99802157      125.760553      -4.57539847     -144.698461      -4.57540336     -144.698446      -1.99821182      125.763094
2.6                  -2.00524832      124.938789      -4.56676903     -145.541607      -4.56677511     -145.541588       -2.0054829       124.94134
2.62                 -2.01313529      124.116456      -4.55712164     -146.385952      -4.55712887     -146.385928      -2.01341181      124.119021
2.64                 -2.02169143       123.29345      -4.54645549     -147.231611      -4.54646385     -147.231582       -2.0220075       123.29603
2.66                 -2.03092644      122.469665      -4.53476983     -148.078705      -4.53477927      -148.07867      -2.03127971      122.472262
2.68                 -2.04085079      121.644992      -4.52206396     -148.927352      -4.52207443     -148.927312      -2.04123896      121.647607
2.7                  -2.05147577      120.819324      -4.50833726     -149.777674      -4.50834871     -149.777627      -2.05189658      120.821954
2.72                 -2.06281346      119.992549      -4.49358915     -150.629792      -4.49360151     -150.629738      -2.06326472      119.995192
2.74                 -2.07487686      119.164555      -4.47781913     -151.483829      -4.47783232     -151.483768      -2.07535643      119.167209
2.76                 -2.08767983      118.335228      -4.46102676      -152.33991      -4.46104071     -152.339841      -2.08818565      118.337888
2.78                 -2.10123716      117.504453      -4.44321168      -153.19816       -4.4432263     -153.198084      -2.10176726      117.507112
2.8                  -2.11556464       116.67211      -4.42437358     -154.058707      -4.42438878     -154.058623      -2.11611714      116.674763
2.82                 -2.13067907       115.83808      -4.40451225     -154.921679      -4.40452793     -154.921587      -2.13125217       115.84072
2.84                  -2.1465983      115.002241      -4.38362754     -155.787208       -4.3836436     -155.787107      -2.14719031       115.00486
2.86                 -2.16334131      114.164469      -4.36171938     -156.655424      -4.36173572     -156.655315      -2.16395063      114.167057
2.88                 -2.18092823      113.324635      -4.33878781     -157.526462      -4.33880431     -157.526345       -2.1815534      113.327183
2.9                  -2.19938042      112.482611      -4.31483292     -158.400457      -4.31484947     -158.400333      -2.20002007      112.485109
2.92                 -2.21872053      111.638265      -4.28985493     -159.277549      -4.28987141     -159.277416      -2.21937342      111.640701
2.94                 -2.23897255      110.791461      -4.26385411     -160.157875      -4.26387042     -160.157736      -2.23963755      110.793824
2.96                 -2.26016188      109.942062      -4.23683088      -161.04158       -4.2368469     -161.041433        -2.260838       109.94434
2.98                 -2.28231541      109.089928      -4.20878574     -161.928807      -4.20880135     -161.928653      -2.28300179      109.092108
3                    -2.30546163      108.234914       -4.1797193     -162.819704      -4.17973441     -162.819544      -2.30615752      108.236983
3.02                 -2.32963065      107.376875      -4.14963233     -163.714421      -4.14964681     -163.714255      -2.33033544      107.378819
3.04                 -2.35485434      106.515659      -4.11852568      -164.61311      -4.11853945     -164.612939      -2.35556757      106.517465
3.06                 -2.38116641      105.651115      -4.08640039     -165.515927      -4.08641335     -165.515751      -2.38188776      105.652767
3.08                 -2.40860254      104.783084      -4.05325762     -166.423031      -4.05326969     -166.422851      -2.40933179      104.784569
3.1                  -2.43720044      103.911407      -4.01909873     -167.334584      -4.01910983     -167.334402      -2.43793755       103.91271
3.12                 -2.46700002       103.03592      -3.98392524     -168.250752      -3.98393531     -168.250568      -2.46774506      103.037025
3.14                 -2.49804348      102.156455       -3.9477389     -169.171705      -3.94774788      -169.17152      -2.49879669      102.157348
3.16                  -2.5303755      101.272841      -3.91054165     -170.097617       -3.9105495     -170.097431      -2.53113722      101.273506
3.18                 -2.56404331      100.384903      -3.87233572     -171.028664      -3.87234241      -171.02848      -2.56481406      100.385324
3.2                  -2.59909694      99.4924612      -3.83312358      -171.96503       -3.8331291     -171.964847      -2.59987736      99.4926236
3.22                  -2.6355893      98.5953333      -3.79290804     -172.906901      -3.79291238     -172.906722      -2.63638018      98.5952209
3.24                 -2.67357644      97.6933319      -3.75169224      -173.85447      -3.75169542     -173.854294       -2.6743787      97.6929291
3.26                  -2.7131177       96.786266      -3.70947968     -174.807933      -3.70948173     -174.807762      -2.71393241      96.7855571
3.28                 -2.75427594      95.8739404      -3.66627432     -175.767492      -3.66627529     -175.767327       -2.7551043      95.8729098
3.3                  -2.79711777       94.956156      -3.62208057     -176.733356      -3.62208051     -176.733198      -2.79796112      94.9547881
3.32                 -2.84171377      94.0327094      -3.57690337     -177.705739      -3.57690236     -177.705589       -2.8425736      94.0309888
3.34                  -2.8881388      93.1033936      -3.53074824     -178.684862      -3.53074636      -178.68472      -2.88901673      93.1013047
3.36                 -2.93647225      92.1679973      -3.48362134      -179.67095       -3.4836187     -179.670818      -2.93737003       92.165525
3.38                 -2.98679838      91.2263057      -3.43552956      179.335762      -3.43552627      179.335884       -2.9877179      91.2234347
3.4                   -3.0392066         90.2781      -3.38648058      178.335035      -3.38647677      178.335146      -3.04014989      90.2748153
3.42                 -3.09379191      89.3231581      -3.33648296       177.32662      -3.33647875       177.32672      -3.09476112      89.3194449
3.44                 -3.15065522      88.3612545      -3.28554619      176.310263      -3.28554174      176.310352      -3.15165265       88.357098
3.46                 -3.20990381      87.3921608      -3.23368088      175.285702      -3.23367632      175.285779       -3.2109319      87.3875465
3.48                  -3.2716518      86.4156457      -3.18089874      174.252667      -3.18089424      174.252731       -3.2727131      86.4105592
3.5                  -3.33602063      85.4314756       -3.1272128      173.210879       -3.1272085      173.210931      -3.33711782      85.4259027
3.52                  -3.4031396      84.4394152      -3.07263746      172.160054      -3.07263352      172.160094      -3.40427551      84.4333417
3.54                 -3.47314648      83.4392277      -3.01718863      171.099897      -3.01718521      171.099925      -3.47432408      83.4326397
3.56                 -3.54618817      82.4306756       -2.9608839      170.030108      -2.96088113      170.030124      -3.54741053      82.4235593
3.58                 -3.62242136      81.4135216      -2.90374259      168.950377      -2.90374063      168.950382      -3.62369172      81.4058632
3.6                  -3.70201335      80.3875292      -2.84578602      167.860387      -2.84578499      167.860381      -3.70333506       80.379315
3.62                 -3.78513906       79.352376      -2.78703988       166.75973      -2.78703991      166.759714      -3.78651563      79.3435901
3.64                 -3.87199259      78.3079203      -2.72752786      165.648161      -2.72752906      165.648135      -3.87342766       78.298549
3.66                 -3.96277839      77.2539352      -2.66727796      164.525339      -2.66728043      164.525305      -3.96427573      77.2439649
3.68                  -4.0577154      76.1902001      -2.60632079      163.390919       -2.6063246      163.390877      -4.05927895      76.1796167